! AWR Design Environment (19377) Sat Dec 27 02:21:50 2025
! Document = 'EM_Extract_4_way'
! nPorts: 5, nXvals: 401
!
! Created with skrf 1.8.0 (http://scikit-rf.org).
# GHz S RI R 50.0 
!freq ReS11 ImS11 ReS12 ImS12 ReS13 ImS13
! ReS14 ImS14 ReS15 ImS15
! ReS21 ImS21 ReS22 ImS22 ReS23 ImS23
! ReS24 ImS24 ReS25 ImS25
! ReS31 ImS31 ReS32 ImS32 ReS33 ImS33
! ReS34 ImS34 ReS35 ImS35
! ReS41 ImS41 ReS42 ImS42 ReS43 ImS43
! ReS44 ImS44 ReS45 ImS45
! ReS51 ImS51 ReS52 ImS52 ReS53 ImS53
! ReS54 ImS54 ReS55 ImS55
!
1.0 0.14966377561241262 0.6975121787272517 -0.11840695082038652 -0.01663097233744192 -0.11841323262336179 -0.01666724497393063 -0.1184074047211781 -0.016637148577554727
 -0.1184179529246505 -0.016587860415010303
 -0.1180503450128767 -0.016633371440368756 -0.7288773620071033 -0.06393846832912978 0.009907209927033554 0.01652426758588864 0.0019836197246148133 0.009560125559438248
 0.001984004805488581 0.009560301755842679
 -0.11805659251290741 -0.016669539780017402 0.00990720992703356 0.016524267585888642 -0.7289300260048757 -0.06401274210312474 0.0019802574112104845 0.00956282862269076
 0.0019830155119128405 0.009563465230654508
 -0.11805079488957808 -0.01663952965392492 0.001983619724614815 0.00956012555943825 0.001980257411210486 0.009562828622690759 -0.7289152357516151 -0.06401131434748064
 0.009919440523067199 0.01652607319640697
 -0.11806133339450003 -0.016590391508313058 0.0019840048054885827 0.009560301755842679 0.001983015511912842 0.00956346523065451 0.0099194405230672 0.01652607319640697
 -0.7288785426045266 -0.06392049675064028
1.01 0.20744307061588818 0.6706579861427991 -0.12620826988028205 -0.005757753388722271 -0.12621266152483104 -0.00579186000473579 -0.12620167350569741 -0.005757170555560035
 -0.12621372891691576 -0.005710740721297223
 -0.12588289513125864 -0.005788858521917467 -0.7201996372397932 -0.03418988060777709 0.01273286806294737 0.016145742455527044 0.0038627718798055505 0.009694868279880324
 0.0038624356844909782 0.009695454602403014
 -0.12588726313507678 -0.005822879369292775 0.012732868062947374 0.016145742455527048 -0.7202664596694007 -0.03426013778530303 0.0038599991947501147 0.009696837402823483
 0.003862276063057541 0.009697852306365872
 -0.12587631586506043 -0.00578827478510776 0.0038627718798055505 0.009694868279880326 0.0038599991947501147 0.009696837402823484 -0.7202539321226401 -0.03426353643892538
 0.012744109196622382 0.016146234307939173
 -0.12588835726506464 -0.00574196826094159 0.003862435684490979 0.009695454602403014 0.003862276063057543 0.00969785230636587 0.01274410919662238 0.01614623430793917
 -0.7202001046954717 -0.034172240179721314
1.02 0.26173540981909926 0.6356707014986737 -0.1335107100375261 0.0068469564372115495 -0.13351238839272594 0.0068137819213305376 -0.13349478104597318 0.006852297844075119
 -0.13350971628832278 0.006897294261733681
 -0.13314229473782366 0.006777365375898792 -0.7097514212893653 -0.005057116430593875 0.015758097319388903 0.015378749717967249 0.005897591572600039 0.009485799018185668
 0.005896761369513532 0.009487027075008545
 -0.13314395586497066 0.006744282411927089 0.015758097319388906 0.015378749717967249 -0.7098326291847515 -0.005121043257793339 0.005895091306828209 0.009486936492061981
 0.005897131132325021 0.00948850441065436
 -0.1331264120337532 0.006782697972465716 0.005897591572600036 0.009485799018185668 0.005895091306828208 0.009486936492061981 -0.7098232754213761 -0.005128795250521993
 0.01576815244742429 0.015378061027719483
 -0.13314132281447513 0.006827563694688986 0.0058967613695135295 0.009487027075008545 0.005897131132325017 0.00948850441065436 0.01576815244742429 0.015378061027719485
 -0.7097511845223229 -0.005039719747537003
1.03 0.3110787024883193 0.5927910645715534 -0.1398739127641131 0.02127143921304273 -0.13987234201797916 0.021237682618962233 -0.13984685137328526 0.021278938435652713
 -0.13986569142878447 0.021324332985557814
 -0.1394468013492222 0.021125963206282898 -0.6972424239764592 0.02319734998410512 0.018917680287512197 0.014128930159223167 0.008020546778642435 0.008860842542089945
 0.008019510496062102 0.008862848442268046
 -0.13944521654009434 0.021092313461809713 0.01891768028751219 0.014128930159223164 -0.6973377825304837 0.023142306427689784 0.008017983582370289 0.008861157279564234
 0.008020085110290216 0.008863348830535462
 -0.13941982912675718 0.02113345411454825 0.008020546778642435 0.008860842542089943 0.00801798358237029 0.008861157279564234 -0.6973324103355792 0.02313081866411389
 0.01892636678809945 0.014127210277714082
 -0.13943863558322023 0.02117869556509266 0.008019510496062103 0.008862848442268046 0.008020085110290218 0.008863348830535462 0.01892636678809945 0.01412721027771408
 -0.6972414337107082 0.02321455512128426
1.04 0.3538289592132049 0.5423214285514197 -0.1449714964535401 0.03760063811782923 -0.14496651988175088 0.03756447661345238 -0.14493210303344156 0.037607164613372955
 -0.14495543308875303 0.03765524110139924
 -0.14456596724142456 0.03732674236629144 -0.6828654938526321 0.050269536225980786 0.022174118285903103 0.01233699461501937 0.010166376766641422 0.007777149089949992
 0.010165468377613241 0.007779957132016299
 -0.1445609665665268 0.03729069767039711 0.022174118285903106 0.012336994615019371 -0.6829745036298701 0.050225991629155836 0.010163427143231216 0.007776772702537611
 0.010165909713877748 0.007779544718542558
 -0.14452670227458878 0.03733329171516315 0.010166376766641423 0.007777149089949991 0.010163427143231218 0.0077767727025376135 -0.6829737712779719 0.05021147217695587
 0.022181299379158154 0.012334386284806756
 -0.1445500128944677 0.03738119468191598 0.010165468377613241 0.007779957132016299 0.01016590971387775 0.00777954471854256 0.022181299379158154 0.012334386284806756
 -0.6828636270532994 0.05028658607209584
1.05 0.3882260653586702 0.48535329559912255 -0.14829962076937725 0.0558434739861353 -0.14829167049005226 0.05580292119186755 -0.1482475328706236 0.055845527703096094
 -0.14827524671511513 0.05589889032905637
 -0.14802648153131914 0.055481652314476305 -0.6666747394054654 0.07592222006894522 0.025451585698803677 0.0098998125588466 0.012244489053200962 0.006175286783496923
 0.012244034126866343 0.006178784233846151
 -0.14801848845236873 0.055441209724282986 0.02545158569880367 0.009899812558846598 -0.6667964951206695 0.07589302174759513 0.012240890071851149 0.006174467873544526
 0.012244055840953411 0.006177638083417964
 -0.14797452270704758 0.05548378072894727 0.012244489053200963 0.006175286783496923 0.012240890071851149 0.006174467873544526 -0.6668009384843959 0.07587623920997687
 0.02545714391074418 0.009896439130270045
 -0.14800225115980528 0.055536971954112724 0.012244034126866341 0.00617878423384615 0.012244055840953413 0.006177638083417965 0.025457143910744176 0.009896439130270046
 -0.666671796872413 0.0759390790449925
1.06 0.41276148775414406 0.4233075695949675 -0.14942319824615713 0.07591428311391525 -0.14941331046049527 0.07586730407095006 -0.14935891178455094 0.07590822092775147
 -0.14939015812395653 0.07596963920149795
 -0.14923113201997146 0.07552270948821617 -0.6491077807816901 0.09980271710737584 0.028638699555788752 0.006730650403409761 0.014136269423563764 0.004016026378680115
 0.014136542948780181 0.0040199777726453575
 -0.14922119133074147 0.07547584362058263 0.02863869955578875 0.006730650403409761 -0.6492408755464726 0.09979086523815864 0.014131852169466493 0.004015122701238508
 0.014135930388152298 0.004018384090694869
 -0.14916696978780772 0.0755167604466993 0.014136269423563767 0.004016026378680116 0.014131852169466495 0.0040151227012385085 -0.6492509068021678 0.09977262724048026
 0.02864252817670032 0.006726602777799542
 -0.1491982471880748 0.0755780021107773 0.014136542948780185 0.004019977772645357 0.014135930388152293 0.004018384090694867 0.028642528176700318 0.00672660277779954
 -0.6491035104690513 0.09981925264712768
1.07 0.42614370604559815 0.35794225358719167 -0.14764938598982394 0.09754473347108965 -0.1476392843240531 0.09748947241051918 -0.1475743920149833 0.09752697602853563
 -0.14760742525115206 0.09759913399084827
 -0.14757387836379984 0.09715700470638894 -0.6300357954278997 0.12172580926181105 0.031542653799331064 0.0027592477863255414 0.01567482186169352 0.0012846579785341541
 0.015675997266126465 0.0012887117669485512
 -0.1475637044685762 0.09710184615176866 0.03154265379933106 0.0027592477863255423 -0.6301780108375581 0.12173434710535971 0.0156695608868793 0.0012840991090088865
 0.015674658391048535 0.0012870360073396654
 -0.14749897337528992 0.09713939449096697 0.015674821861693514 0.0012846579785341543 0.015669560886879305 0.001284099109008886 -0.6301938984300006 0.12171550287895487
 0.0315446347797605 0.0027545815708592235
 -0.14753206989677883 0.09721138699670274 0.01567599726612646 0.0012887117669485534 0.015674658391048528 0.0012870360073396652 0.031544634779760494 0.002754581570859225
 -0.6300299326730098 0.12174173557175696
1.08 0.4272605690884621 0.2916174402116743 -0.1425425511329041 0.12033731995737829 -0.14253466441700965 0.12027225140046412 -0.14245926559392508 0.12030463997760756
 -0.14249144794485413 0.12038996266880644
 -0.14252400036910529 0.11997230391773787 -0.6101431356493179 0.14158729951958673 0.03399593604191599 -0.002018407735151031 0.016700545210605763 -0.0019766495923017875
 0.01670264789392685 -0.0019729213205324394
 -0.1425160310943502 0.11990733372275945 0.03399593604191598 -0.0020184077351510315 -0.6102916405783498 0.14161908532205597 0.016694585450363647 -0.0019764061247546276
 0.016700644477296692 -0.001974275795960369
 -0.1424407795195045 0.11993978685247643 0.016700545210605763 -0.0019766495923017897 0.016694585450363647 -0.001976406124754625 -0.6103135431044734 0.1416004492829069
 0.03399592986058314 -0.0020236860498458018
 -0.14247304090002597 0.12002494931022546 0.016702647893926843 -0.0019729213205324386 0.01670064447729669 -0.001974275795960368 0.03399592986058315 -0.002023686049845801
 -0.610135443423642 0.14160219983437167
1.09 0.41563178208937196 0.2271329544656081 -0.13346617921612008 0.14369784529436516 -0.13346362869710457 0.14362209560774114 -0.1333779646245863 0.14364762662042882
 -0.13340569343232572 0.1437478985170363
 -0.1335540744356286 0.14331698534720672 -0.5894099824192928 0.15927696565703628 0.035756858450543584 -0.0075843049548057545 0.01701989493775874 -0.005685590109872289
 0.017022761315534412 -0.005682631983614589
 -0.1335514017818991 0.1432413245508957 0.035756858450543584 -0.0075843049548057545 -0.5895610367094082 0.1593345769931982 0.017013584815982755 -0.005684119497660025
 0.017020340053756928 -0.005683278160375344
 -0.1334658756006834 0.14326696836658045 0.01701989493775874 -0.005685590109872288 0.017013584815982752 -0.005684119497660025 -0.5895890160257972 0.15931695523398398
 0.035754661598905675 -0.007590235242266857
 -0.13349373885718144 0.14336708241519286 0.017022761315534412 -0.005682631983614588 0.017020340053756928 -0.005683278160375344 0.03575466159890567 -0.00759023524226686
 -0.5894003103419233 0.15929024218168886
1.1 0.3914561089224106 0.16760020625962502 -0.12007204398643778 0.16679912693775226 -0.12007844092811462 0.16671271103568322 -0.11998295970409054 0.16672968017391243
 -0.12000186195731441 0.1668457492157202
 -0.12023292521038395 0.16647669049397423 -0.5681219632539422 0.17474451101139657 0.03660222482221076 -0.013852719239138962 0.016460336811209984 -0.009693678686044066
 0.016463599583516574 -0.009691882375715697
 -0.12023918282498298 0.16639033517496402 0.03660222482221076 -0.013852719239138962 -0.568271051559127 0.17483002985122867 0.016454216938340944 -0.009690673921468367
 0.016461183911454732 -0.009691529245119951
 -0.12014380584226532 0.16640743864323893 0.016460336811209984 -0.009693678686044064 0.016454216938340947 -0.009690673921468367 -0.5683051125595927 0.17481419209383445
 0.036597521660093495 -0.01385936612770458
 -0.12016287279815076 0.16652338364529976 0.016463599583516578 -0.009691882375715699 0.016461183911454732 -0.009691529245119953 0.03659752166009349 -0.013859366127704581
 -0.5681103257745935 0.17475542569029276
1.11 0.3562573845314727 0.11609110227068369 -0.10215504811874146 0.1886940644691678 -0.10217417647319832 0.18859814901789448 -0.10206951725379813 0.18860483949301624
 -0.10207476159215731 0.18873625237071479
 -0.10238597029595288 0.18843813600198941 -0.5468841848966084 0.1879306383614877 0.036300347621116925 -0.020663125571628534 0.014873662939450132 -0.013778453383825948
 0.014876778901844913 -0.013778042975123255
 -0.10240494314695102 0.18834224304675945 0.03630034762111692 -0.02066312557162853 -0.5470259727284054 0.18804536509270717 0.014868425846569635 -0.013773807782115535
 0.014874928359989095 -0.013776584653053588
 -0.10230035021118988 0.18834908841313436 0.014873662939450132 -0.013778453383825953 0.014868425846569635 -0.013773807782115536 -0.5470660897755798 0.18803208069718422
 0.03629269352734749 -0.020670528102373156
 -0.10230579072858847 0.18848042284294306 0.014876778901844908 -0.013778042975123257 0.014874928359989095 -0.013776584653053588 0.03629269352734749 -0.02067052810237315
 -0.5468708230161115 0.18793834538123574
1.12 0.31204097517936413 0.07532809886615552 -0.07980185081774867 0.20822881108165459 -0.07983732628217349 0.20812579697579855 -0.07972436041622176 0.20812050682770486
 -0.07971102957592306 0.2082653498771172
 -0.08006043426681783 0.20803290199856694 -0.5260085952515561 0.19902960703284386 0.03463844047794533 -0.027741570183121653 0.012169268579516309 -0.017634715393907593
 0.012171574597245285 -0.017635690503761205
 -0.08009575142088558 0.20792988008673816 0.034638440477945315 -0.02774157018312165 -0.5261370465776907 0.19917361391066404 0.012165698135294275 -0.017628595598662405
 0.012170929526732292 -0.01763326086410842
 -0.07998282395754569 0.20792474991694254 0.012169268579516303 -0.01763471539390759 0.012165698135294273 -0.0176285955986624 -0.5261831422728444 0.1991636559860322
 0.03462721857267153 -0.027749697540840938
 -0.0799697008932692 0.20806955287572973 0.012171574597245285 -0.017635690503761202 0.01217092952673229 -0.017633260864108418 0.03462721857267153 -0.027749697540840938
 -0.5259940591070753 0.1990332265938523
1.13 0.2619334442736635 0.04728840913069385 -0.05353487414075577 0.2243312940706612 -0.053589633245006166 0.22422474586443003 -0.053469450508361646 0.2242057864360767
 -0.05343313063139891 0.2243606450094365
 -0.05375099710545325 0.22411512096855332 -0.5056109134552889 0.208158482032328 0.03151672226462716 -0.034746170594158535 0.00837669027260586 -0.020916288714263116
 0.008377510619514724 -0.020918350055703954
 -0.053805597895879465 0.2240085848999317 0.031516722264627144 -0.03474617059415854 -0.5057197379945062 0.2083303894610281 0.008375519445759028 -0.020909185892052463
 0.00837866827833393 -0.020915365082832937
 -0.053685477182216695 0.22398977432802952 0.008376690272605859 -0.02091628871426312 0.008375519445759028 -0.02090918589205246 -0.505771706747068 0.20832454964431513
 0.03150119383493937 -0.034754809057690725
 -0.05364935736467334 0.2241445664080232 0.008377510619514725 -0.020918350055703954 0.008378668278333931 -0.020915365082832937 0.03150119383493937 -0.034754809057690725
 -0.5055960840245491 0.2081572449793452
1.14 0.20939525823863117 0.03303925913703264 -0.024035259876647133 0.2360438077196103 -0.024111234130808415 0.2359382852029273 -0.023985235826353916 0.235903926602222
 -0.023922388433279426 0.23606401692385318
 -0.02432431026844178 0.23594949086245703 -0.48606144954545544 0.21561451287691008 0.02694379533301714 -0.04135223781192813 0.0036375067394274797 -0.023302108871993757
 0.0036362896941700465 -0.02330466023007558
 -0.024400131710786532 0.23584390191442953 0.02694379533301713 -0.04135223781192813 -0.48614451142841114 0.2158115939969342 0.0036393095768460994 -0.023294800160633466
 0.003639689097912366 -0.023301799513090284
 -0.024274124659488222 0.23580971044465732 0.0036375067394274806 -0.023302108871993757 0.003639309576846101 -0.023294800160633466 -0.48620224760673825 0.21581074786245394
 0.026923075445665495 -0.0413609597799617
 -0.024211494840286334 0.2359698359135446 0.003636289694170047 -0.023304660230075585 0.003639689097912365 -0.023301799513090284 0.026923075445665502 -0.041360959779961695
 -0.48604750505871497 0.21560786678572028
1.15 0.15834146014936468 0.03251570652450446 0.00752656798354219 0.24286132116835488 0.007428815864348867 0.24276186527564336 0.007558972278114734 0.24271041747520716
 0.007650470174468292 0.24287009382852906
 0.007282381680733335 0.2427277103951092 -0.4674882687427195 0.22168941226272593 0.02101989649483279 -0.04722260717657338 -0.001793978936469905 -0.024503944934969202
 -0.001797540854784656 -0.02450614867215933
 0.007184784540034739 0.24262821573585538 0.021019896494832796 -0.04722260717657338 -0.46753993612694855 0.2219075136636376 -0.0017889238682067552 -0.024497438738816484
 -0.0017917359676103803 -0.024504289358691166
 0.007314916167317721 0.24257692633790395 -0.0017939789364699037 -0.0245039449349692 -0.0017889238682067552 -0.024497438738816487 -0.4676032785377367 0.22191265985073397
 0.020993087540311678 -0.047230635493433745
 0.0074062032522081754 0.24273660030865285 -0.0017975408547846576 -0.024506148672159337 -0.0017917359676103786 -0.024504289358691166 0.020993087540311678 -0.047230635493433745
 -0.4674766059430088 0.2216771449656676
1.16 0.11234048406130825 0.04432056972496694 0.040107415706029416 0.24435815115136655 0.03998882500858478 0.24426996883550275 0.04012097374034479 0.24419981239527733
 0.0402416437220266 0.24435283098629504
 0.03987021465242457 0.24430516470305863 -0.44987456553163946 0.2266335440622416 0.013910365220470589 -0.052082485861364526 -0.0075844748631850555 -0.024325478222727806
 -0.0075903394661743255 -0.024326365160528884
 0.03975174769230347 0.24421690670080462 0.013910365220470589 -0.052082485861364526 -0.4498899723094126 0.22686729302552106 -0.007576255164617574 -0.024320887985149853
 -0.007582314282378101 -0.024326457920100478
 0.039883911901966114 0.2441468962918759 -0.0075844748631850555 -0.024325478222727803 -0.007576255164617577 -0.024320887985149857 -0.44995863803770336 0.22687960543731436
 0.013876626626433925 -0.05208868763351191
 0.04000439834549979 0.2442999687132826 -0.007590339466174328 -0.024326365160528888 -0.0075823142823781015 -0.02432645792010048 0.013876626626433932 -0.05208868763351192
 -0.44986670027015 0.22661584986191735
1.17 0.07401346775672815 0.06609289373115802 0.07260217190193126 0.24061436263985359 0.07246504886999648 0.2405422139843206 0.07259657105465388 0.24045191601755345
 0.07274532996183695 0.24059214400138607
 0.07234514456172174 0.2405381694838333 -0.43344258414105025 0.23071371020319942 0.005823777448465251 -0.05567917155914772 -0.013343881023172 -0.02266387408531088
 -0.013351612648497166 -0.022662503996617817
 0.07220816615745486 0.24046594083784842 0.005823777448465255 -0.05567917155914772 -0.4334178864175438 0.23095655552415775 -0.0133329868596108 -0.022662274949409367
 -0.013341922177782038 -0.02266542434320699
 0.07233969181549078 0.24037581300664074 -0.013343881023171997 -0.022663874085310873 -0.013332986859610799 -0.022662274949409367 -0.4334913271831089 0.2309773693813599
 0.005782502170411108 -0.05568203634774158
 0.07248823858776131 0.24051609148304606 -0.013351612648497168 -0.022662503996617817 -0.013341922177782038 -0.022665424343206994 0.005782502170411102 -0.05568203634774158
 -0.4334400071136855 0.23069124906870697
1.18 0.04520199264810314 0.09495514869059024 0.10390779920483197 0.23191243440657275 0.10375569192055371 0.23186025049269648 0.10388346245017589 0.23174879110043242
 0.10405765468576371 0.23187064702130644
 0.10365902673053849 0.23189239798768904 -0.41792562260686694 0.23413903193002963 -0.0029428585833227447 -0.05786241291281593 -0.01865494392475213 -0.019568480921448674
 -0.018663745457516537 -0.019564094339260856
 0.10350703621118912 0.23184010773307268 -0.0029428585833227456 -0.05786241291281593 -0.41785841009537766 0.2343836990803503 -0.01864222408071064 -0.019570741283256986
 -0.01865326925743961 -0.019570502325406705
 0.10363484238517877 0.23172881100033024 -0.01865494392475213 -0.019568480921448674 -0.018642224080710635 -0.019570741283256986 -0.4179357862942369 0.23441444810645573
 -0.0029919202902930625 -0.05786011375014104
 0.10380884743071779 0.23185075937925306 -0.018663745457516537 -0.019564094339260853 -0.018653269257439608 -0.019570502325406695 -0.002991920290293062 -0.05786011375014104
 -0.4179296339502232 0.2341129079210504
1.19 0.02670826630561869 0.12810153332016866 0.13323203834437147 0.21878289545386956 0.13306930019117788 0.2187535518688176 0.1331897382574731 0.21862044404134467
 0.1333855551407262 0.21871920635936704
 0.1329221046457788 0.21875552043255178 -0.40323535917374415 0.2371537170580355 -0.012111828848880221 -0.05851121560007854 -0.023133561530246486 -0.015186205286899715
 -0.02314235969445256 -0.015178353326348128
 0.13275951245146128 0.21872603886432787 -0.012111828848880218 -0.05851121560007855 -0.4031246967723391 0.23739235086757174 -0.02312014445895994 -0.015192887117751274
 -0.02313220460437879 -0.015188577861836243
 0.13287999388686764 0.21859314471809327 -0.02313356153024649 -0.015186205286899717 -0.023120144458959945 -0.015192887117751274 -0.4032047287833722 0.23743446975219223
 -0.012168423780154692 -0.05850171567796668
 0.13307557309666967 0.2186920273421931 -0.02314235969445256 -0.015178353326348126 -0.023132204604378787 -0.015188577861836241 -0.012168423780154695 -0.05850171567796668
 -0.4032469214433765 0.23712541857880745
1.2 0.018555358616658635 0.1625536534003428 0.15990567472627876 0.20183973947804879 0.15973718933042175 0.20183485182079086 0.15984638065410597 0.20168039525986262
 0.16005907835744226 0.20175248886249694
 0.15960102819607716 0.20189332472798904 -0.3892195085666689 0.23970299669277256 -0.021409575446966356 -0.0575977367233743 -0.0264697508844756 -0.009782353125476503
 -0.026477330922639652 -0.00977099353596281
 0.1594326442623357 0.20188826185236422 -0.021409575446966353 -0.0575977367233743 -0.3890659756587151 0.2399276184526705 -0.026456908301587034 -0.009793620924792084
 -0.02646869945694476 -0.009784966695821169
 0.15954193636740316 0.20173400893656382 -0.026469750884475604 -0.009782353125476512 -0.02645690830158703 -0.009793620924792079 -0.38914693119249405 0.23998245497682005
 -0.021472894732666305 -0.057578934849890885
 0.15975443633309708 0.2018062860580631 -0.02647733092263965 -0.009770993535962814 -0.026468699456944765 -0.009784966695821164 -0.0214728947326663 -0.057578934849890885
 -0.38923915557530564 0.23967426880495177
1.21 0.01975376885425284 0.19591620268137974 0.18360638562988302 0.18188144821937782 0.1834369864332005 0.18190139030377445 0.1835309753322429 0.18172663788918256
 0.18375549096817717 0.18176978609826325
 0.18330099332807806 0.18192790437916276 -0.37612093827158727 0.24187193124292053 -0.03057002863380601 -0.05513820253237574 -0.028449228369366565 -0.003691773586657679
 -0.028454400793500378 -0.0036772864801049143
 0.1831316957813568 0.18194766973747623 -0.03057002863380601 -0.055138202532375745 -0.3759266321845397 0.24207476356011087 -0.028438214897115628 -0.003707382954406288
 -0.028448430170584335 -0.003694542402499885
 0.1832257853097219 0.18177313208555926 -0.02844922836936657 -0.0036917735866576775 -0.028438214897115625 -0.003707382954406286 -0.376006339953084 0.2421434314073271
 -0.030638669957968667 -0.05510809994256092
 0.18345009947439003 0.18181646491179745 -0.028454400793500374 -0.0036772864801049186 -0.02844843017058434 -0.003694542402499886 -0.030638669957968667 -0.05510809994256092
 -0.3761487052720475 0.24184463079259114
1.22 0.02926331346359355 0.22629825405867088 0.2041133866751587 0.15945096874423295 0.20394776278427998 0.1594950589059501 0.2040226082616999 0.15930200930268335
 0.2042536507324249 0.1593150006314596
 0.20381369306984398 0.1595476882141738 -0.36371563891355163 0.24377311379175162 -0.03934889510174657 -0.051154064469569084 -0.028947032580893057 0.002724201805151331
 -0.028948762584772317 0.0027410419865843767
 0.20364813774491472 0.15959158159555148 -0.03934889510174657 -0.05115406446956908 -0.3634841026577097 0.2439467299523881 -0.02893897629509633 0.0027048720692258717
 -0.028946404211783787 0.0027213284040976046
 0.20372312650140714 0.15939873897900078 -0.02894703258089306 0.0027242018051513287 -0.028938976295096328 0.0027048720692258734 -0.363559931446639 0.24402995747770864
 -0.03942084862536048 -0.051110934002751386
 0.203953998337445 0.15941195401066124 -0.02894876258477231 0.0027410419865843754 -0.02894640421178378 0.0027213284040976038 -0.03942084862536047 -0.05111093400275138
 -0.3637510404928476 0.24374907633450127
1.23 0.04565034992110575 0.25221253389279163 0.2213262097127056 0.1352804791512817 0.22116853127596336 0.1353470043714225 0.22122077232721757 0.13513854859219418
 0.22145322231910983 0.13512137669146143
 0.22102233772833713 0.1354141357863284 -0.3520227682926992 0.24557849897298384 -0.047469971810186036 -0.045756686950709315 -0.02795729518805862 0.009064996676523445
 -0.0279548519790248 0.009083104110712335
 0.2208647046350887 0.13548044673446966 -0.04746997181018603 -0.04575668695070931 -0.3517589962054548 0.2457164105027694 -0.027953059562298523 0.009042874908852923
 -0.02795675295467547 0.009062024871248709
 0.22091712650798861 0.1352721981814691 -0.027957295188058628 0.009064996676523444 -0.027953059562298523 0.009042874908852923 -0.35182805194793443 0.2458143446201328
 -0.04754279406053619 -0.045699290835009426
 0.22114942466241944 0.1352552830383426 -0.0279548519790248 0.009083104110712331 -0.027956752954675472 0.009062024871248712 -0.04754279406053619 -0.04569929083500941
 -0.35206482276663476 0.245559342826669
1.24 0.067305553113297 0.2727034943986406 0.23532661829967652 0.10983892467518598 0.23518040925452832 0.10992546571562123 0.2352071579436318 0.10970523589048835
 0.23543626092938932 0.10965877374996627
 0.23509010329328442 0.11001936344880697 -0.34082046064614474 0.24730323855018602 -0.05474423704179431 -0.03904597104160329 -0.025574448055742313 0.014996613557622
 -0.02556746503512824 0.015014721386045739
 0.23494388412222802 0.11010571013036774 -0.05474423704179433 -0.039045971041603296 -0.340530456886074 0.2473998517683639 -0.025574587416856445 0.014972811155383261
 -0.025573922357065557 0.0149935093392045
 0.23497084208390115 0.10988562447883236 -0.025574448055742313 0.014996613557622003 -0.02557458741685645 0.014972811155383266 -0.3405896221194767 0.247512090869744
 -0.05481511309964898 -0.03897361023203532
 0.2351998704744144 0.10983941951923228 -0.025567465035128238 0.015014721386045735 -0.025573922357065557 0.014993509339204498 -0.05481511309964899 -0.03897361023203533
 -0.3408678171719623 0.24729028503934058
1.25 0.09271734228864043 0.2872169250127304 0.24623509683509986 0.0835966439448574 0.24610310316754896 0.08370027422675054 0.24610231577919844 0.08347244781519093
 0.24632382342546424 0.08339834061691585
 0.24603373219209704 0.08378333915889095 -0.330139409289595 0.24906794532419507 -0.06093767131502508 -0.031169299984621812 -0.021964199510045208 0.020206787751980523
 -0.021952713864740094 0.020223571173031956
 0.24590170859529628 0.08388679477812858 -0.06093767131502509 -0.03116929998462182 -0.3298301846875336 0.24911890511103857 -0.02196891077738789 0.020182494778070385
 -0.0219636402097515 0.020203481977156205
 0.24590113320354243 0.08365908210737501 -0.021964199510045208 0.020206787751980523 -0.021968910777387888 0.020182494778070385 -0.32987631244946347 0.24924433159839038
 -0.06100357323159796 -0.03108196123328101
 0.24612259838197398 0.08358521787671963 -0.021952713864740094 0.02022357117303196 -0.021963640209751497 0.020203481977156202 -0.06100357323159797 -0.031081961233281007
 -0.3301904091095632 0.24906210470209852
1.26 0.12040622857117367 0.29564551718043536 0.25424944264556465 0.056794179816961096 0.25413361773234716 0.05691171640854943 0.25410426348811765 0.056680764115778506
 0.25431455355515636 0.05658123272979756
 0.25404118829043437 0.05697408040561887 -0.3198816313997921 0.2508155806182935 -0.0658789692843493 -0.022284275501567665 -0.017349642940979963 0.024480317740122687
 -0.017334087468393947 0.024494527295251006
 0.2539253366060302 0.05709144474892568 -0.0658789692843493 -0.022284275501567672 -0.31956079384433717 0.2508176266122516 -0.017358791781725547 0.024456615515129326
 -0.01734904894743405 0.024476675044149902
 0.2538961967420292 0.056860612969401175 -0.017349642940979963 0.024480317740122683 -0.01735879178172555 0.02445661551512933 -0.3195909335040995 0.2509543377414918
 -0.06593691160672825 -0.022182657335980047
 0.2541064388307785 0.05676132262245032 -0.017334087468393954 0.024494527295251013 -0.017349048947434047 0.024476675044149906 -0.06593691160672824 -0.02218265733598005
 -0.3199346011603733 0.2508171759038288
1.27 0.149117572493214 0.29813079516550406 0.2594345992615728 0.02968576882679007 0.2593361391124289 0.029813874346063897 0.25927831697660586 0.02958433553544742
 0.2594743627349513 0.029462118497465307
 0.259250524961717 0.02987292202523239 -0.3099384467832896 0.25261186753377274 -0.06937731717486217 -0.012623464733222534 -0.011992059170930545 0.027646935732529163
 -0.011973218119680783 0.027657507670734816
 0.25915202426132133 0.03000087026297702 -0.06937731717486216 -0.012623464733222541 -0.30961414882982463 0.2525631333837494 -0.012005228770658195 0.027624700319836413
 -0.011991492262114777 0.02764276832823232
 0.25909441975145925 0.029771427700911436 -0.011992059170930549 0.027646935732529163 -0.0120052287706582 0.027624700319836423 -0.3096258433094271 0.2527084458252516
 -0.06942458885095788 -0.012509033119829215
 0.2592904410030578 0.029649441607869573 -0.01197321811968078 0.027657507670734813 -0.011991492262114779 0.027642768328232318 -0.06942458885095787 -0.012509033119829208
 -0.30999189008557165 0.25262063878595364