! AWR Design Environment (19377) Sat Dec 27 02:21:50 2025
! Document = 'EM_Extract_4_way'
! nPorts: 5, nXvals: 401
!
! Created with skrf 1.8.0 (http://scikit-rf.org).
# GHz S RI R 50.0 
!freq ReS11 ImS11 ReS12 ImS12 ReS13 ImS13
! ReS14 ImS14 ReS15 ImS15
! ReS21 ImS21 ReS22 ImS22 ReS23 ImS23
! ReS24 ImS24 ReS25 ImS25
! ReS31 ImS31 ReS32 ImS32 ReS33 ImS33
! ReS34 ImS34 ReS35 ImS35
! ReS41 ImS41 ReS42 ImS42 ReS43 ImS43
! ReS44 ImS44 ReS45 ImS45
! ReS51 ImS51 ReS52 ImS52 ReS53 ImS53
! ReS54 ImS54 ReS55 ImS55
!
1.0 0.0013823381260534978 0.4734145085335124 -0.13430719804670277 0.0010562116048016598 -0.1023860262578285 0.03134841115756483 -0.04259471357213792 0.18159181170801542
 0.04113866858417278 0.17121044996827786
 -0.1339113648845573 0.000994712188563087 -0.7268323082346803 -0.06284927684560344 0.013140042353422919 0.01073664096670286 0.015446160718219411 -0.0017692702922931065
 0.012276102964505738 -0.00804165399851367
 -0.10210938595965743 0.031217675218000562 0.013141916030375973 0.010737651736973846 -0.7276953013593386 -0.011722213159829516 0.011402739965644977 -0.004864473655666705
 0.007553321760377273 -0.008940001706814766
 -0.042550535694002425 0.1810594564785228 0.015447962018816706 -0.0017696894093881673 0.011402732054884863 -0.004864333610251716 -0.6245667466775648 -0.12123900923622272
 -0.019124717029813564 -0.035106376999660245
 0.04094725081963894 0.17073317593426687 0.012276767586606624 -0.008042282593126929 0.007552968448219526 -0.008939352811557352 -0.019123539787518316 -0.03510443184021508
 -0.7068407636346027 -0.0977124869389854
1.01 0.021212838962054503 0.47029356373420556 -0.13765355398392815 0.015573445839705677 -0.10323792908166521 0.043218627136008825 -0.02366818622159363 0.1911536619874134
 0.061495080871978726 0.17126006977395966
 -0.13730661209731732 0.0154835425077206 -0.7178935122731801 -0.03374338767412092 0.015419391958466365 0.009462514928135617 0.015493745232363913 -0.004835568228589807
 0.011005475622421344 -0.01067345437823602
 -0.10300115707660176 0.04305520879337446 0.01541852641900598 0.00946552932032788 -0.716022652684933 0.01809826145226681 0.010924656539563085 -0.007253488155636682
 0.006122985560705347 -0.010769873105056981
 -0.023679886295473 0.1906573919139226 0.015493997204763103 -0.0048354156923044 0.010923168101600489 -0.007254914933712349 -0.6181794219079566 -0.10630191365070016
 -0.025472113640171833 -0.03364004746865081
 0.06127955596992293 0.17084007859429312 0.011005047721717304 -0.010673651433278367 0.006120526154501451 -0.010770452060476983 -0.02547294646222154 -0.033638193861266236
 -0.7035388637999851 -0.07449718031043251
1.02 0.04102543849783086 0.46634965258917727 -0.13959378373949802 0.030702661957454528 -0.10290932138279374 0.055608853222011694 -0.002929369134475633 0.1985410967854514
 0.08231435394916162 0.1685263494194298
 -0.13921749922092277 0.030564475243759825 -0.7073911866830456 -0.005316146811130781 0.01766387927966646 0.007809448616010972 0.014911572237890199 -0.007987967104166127
 0.00915543025866563 -0.013091364585573573
 -0.10263196413874842 0.05540185136571252 0.017660850465036695 0.007809189234892222 -0.7028301051716264 0.04706259505748216 0.009930336170590085 -0.009642310677087875
 0.0042521952732264955 -0.012363285731144374
 -0.0029978056091217904 0.1979901692116813 0.014911771612689945 -0.007987942609385932 0.009931483840911717 -0.009644279805661982 -0.6124018849099666 -0.09220404766988605
 -0.03182597410007977 -0.030963215154738478
 0.08201016115456726 0.16806685171535032 0.00915424199453562 -0.01308956965581087 0.004251665748513527 -0.012363663625493349 -0.03182148354862385 -0.03095863552696287
 -0.6999297171167325 -0.0511506900404351
1.03 0.06087879755308723 0.46142477272667404 -0.13996345271677538 0.04626593082934911 -0.1012310746654091 0.0683673614260389 0.019266451024508382 0.2033163663850175
 0.10301174094747349 0.1628182723871466
 -0.1395501238188687 0.04604194388120858 -0.6950540294285986 0.022239105876127752 0.01979766405657311 0.00575582715619521 0.013659259527319792 -0.011075681480636201
 0.006766960059476142 -0.015142523700273273
 -0.1009475665166391 0.068077560310284 0.019794837341172333 0.00575725577873001 -0.6875353111906514 0.07491861965304815 0.008402985329689305 -0.011902110506882658
 0.0019917623480304155 -0.01359948210293065
 0.019107240328911028 0.20272351359637703 0.013660992849639453 -0.011078461503876596 0.008403438479052802 -0.011906934989517504 -0.6070377669894893 -0.07869978567558222
 -0.037882817013700935 -0.02703638700202676
 0.10260658012111587 0.16236131818298744 0.0067662165303416354 -0.015143047319296632 0.001989849420554016 -0.013601468632435653 -0.03787635857777389 -0.02703217183974044
 -0.6952270918068926 -0.027651667914524856
1.04 0.08091709405245837 0.45513988345664347 -0.13880796128214012 0.062155119207854076 -0.09822237716003548 0.08145568632409124 0.042500064421867524 0.20526764123655772
 0.12313699804488686 0.1542702678166011
 -0.13844819144104412 0.061812313532179225 -0.6810654387219122 0.04869420869312561 0.021802083934822747 0.0033032526477049192 0.011761501579883985 -0.01396452238488046
 0.00393372043815973 -0.0167304881284388
 -0.09801713797067776 0.08109584581233373 0.021802824676872685 0.0033045611034655245 -0.6706638183062213 0.1014422064696061 0.0063649679802712505 -0.013932227667966363
 -0.0005853261092741612 -0.01441070216804766
 0.04212568073273653 0.2046294505359606 0.011758977746415326 -0.013960345880700392 0.006362852630204064 -0.013928039239671341 -0.6024330254964342 -0.06560016102531897
 -0.0433713722857932 -0.021935317103239375
 0.12253661197638725 0.15388966357111142 0.003933855318190328 -0.016724713619781364 -0.000584665465921959 -0.014405426403035795 -0.04336777337803673 -0.02193583469401655
 -0.6899929703194407 -0.004087808920792732
1.05 0.10091135398161655 0.4472851143803923 -0.1360567974574914 0.0782948254370381 -0.09372665509196149 0.09475017821811857 0.06627982976759532 0.2040662454517992
 0.14211604307967457 0.14298122289500134
 -0.13584759475512942 0.07789744693473653 -0.6654474773621987 0.07388183345977375 0.023613604292270343 0.0004162919723473858 0.009235945458270483 -0.016513495233230077
 0.0007475381100505826 -0.017755260683307603
 -0.09364000428781367 0.09438211877438552 0.023613555036591544 0.0004151198676268329 -0.6521079169977275 0.12639073362243292 0.0038345020689883155 -0.015597723795509265
 -0.0033944115782627905 -0.014703436621676657
 0.06577109721189284 0.20365338600755903 0.009236783286172275 -0.016509883588672475 0.0038367869013176447 -0.015594812870304462 -0.5982322196296866 -0.052607377763759525
 -0.048048589942403054 -0.015774208996600814
 0.14150605595790522 0.14286497900200187 0.0007511891330616794 -0.01775289613716997 -0.0033901702588793065 -0.014702536414052027 -0.048048337479056735 -0.015778333690094286
 -0.6836107225839113 0.019437384831690697
1.06 0.12060322582945027 0.4375911247094389 -0.1317303614973067 0.09465904115160849 -0.08774518720829352 0.10822124739335003 0.09016592335295932 0.19985976883907244
 0.15970325332410765 0.12929774918595538
 -0.13160440916496044 0.09425614950048258 -0.6485803593794034 0.09750702509057632 0.025174446312310698 -0.002926585792248452 0.006146923893580013 -0.01860077269432892
 -0.00268437715239728 -0.01815425873083476
 -0.08773623550866003 0.10787032820797625 0.025176457666060515 -0.0029275259448765163 -0.6323359318486454 0.14959103802223456 0.0008825229107462047 -0.016802037483598802
 -0.006335547826893725 -0.014437055497953152
 0.08963927218313476 0.19962379823568457 0.006151018323418354 -0.018601723031552057 0.0008860915305914491 -0.016802330537146484 -0.5946714939084345 -0.03977275245872171
 -0.05173428970725019 -0.008717302232860746
 0.15917514314075282 0.12933428798227858 -0.0026814216444351327 -0.0181583131360907 -0.006333090495196205 -0.014440059886832507 -0.05173852840048533 -0.008718462766920194
 -0.6765157279315877 0.042749766219097304
1.07 0.13958290608746438 0.42591904843505246 -0.12559446325076346 0.11112342438907409 -0.08003496311202785 0.12173557963373545 0.11369637219027132 0.19252838322273427
 0.17554902054008367 0.11342926737016545
 -0.12557507383030764 0.11074959339858129 -0.6302594897581653 0.11942665956144298 0.026369865129538216 -0.0067444537837056074 0.002575752724969518 -0.020085816246845686
 -0.006233181229695635 -0.017864002303214867
 -0.08009779495358908 0.1213906413176893 0.026365637129381118 -0.006741447162042192 -0.6114300213109661 0.17081506514426834 -0.0024113072457062376 -0.017421546312510798
 -0.009292197601724972 -0.013558738169868871
 0.11322067028207024 0.19241763932053332 0.002575635910755297 -0.02008696442928264 -0.002413289749647038 -0.01742541604390505 -0.5914985719022301 -0.026637944163130936
 -0.05421979446232499 -0.0009703288863915084
 0.17509608960316547 0.11353133108785626 -0.00623335450988424 -0.01786411441031318 -0.009294950875741559 -0.013560567666000325 -0.05421724598595374 -0.0009706215833767269
 -0.6683128710366186 0.06591906185164872
1.08 0.1573871286165672 0.4122706308631492 -0.1176417715956701 0.12761448745492593 -0.07049465026386106 0.13513187556948367 0.13644149217174395 0.18217714167392032
 0.1894727170791158 0.09569213383438209
 -0.11766695717479542 0.12727536594708472 -0.6110743041342467 0.1395460961643651 0.027105569941174572 -0.011025743949753674 -0.0013574329578004394 -0.02086726498032749
 -0.009766404647353701 -0.016868497369008303
 -0.0705962471609061 0.13484701118443979 0.027105554572252888 -0.011024963598918889 -0.5895407953603341 0.1900731853395419 -0.005935511998664873 -0.01737541950833945
 -0.012149425510510722 -0.01206153490205452
 0.1360145161181805 0.18213945461084785 -0.0013581463544473883 -0.020868920239566314 -0.005936984564774508 -0.017376696463189584 -0.5887120526240756 -0.013257998146357166
 -0.05541837046536502 0.0072093907262155135
 0.18907410146025816 0.09585461234759594 -0.009764805591638356 -0.016869585135290032 -0.012148742847776237 -0.012062653303399352 -0.05541519065140257 0.007201771856402181
 -0.6591672030943175 0.08868047256342515
1.09 0.1735142218500252 0.3967829984080497 -0.10759201644833681 0.14398065095910093 -0.05892521416846116 0.14825375881938296 0.15800498165084068 0.16889977473985482
 0.20121056361600745 0.07631933742170594
 -0.10770930350352123 0.14364216688654854 -0.5909073374240318 0.15773104329898083 0.02725415621959959 -0.015754937053737723 -0.005515353371950384 -0.02085200388323611
 -0.013139894552103015 -0.015154026739066262
 -0.05909545436972072 0.1479746579445066 0.027250864585931345 -0.01575347018568881 -0.5668117354509666 0.2071479088904185 -0.009550077989517373 -0.01658849385528066
 -0.014768005605990862 -0.009945886385663186
 0.15754426195078952 0.1689728198764254 -0.005514857999306452 -0.020851860833705806 -0.009550508858638115 -0.01659048916636379 -0.5860199897197896 0.0006395208176968709
 -0.05526267057250102 0.015554655424071482
 0.20082265678174804 0.07655308443292635 -0.013137418643645406 -0.015151329937747923 -0.014766821519838692 -0.009945457533509347 -0.05525302819438565 0.015552855289991521
 -0.6490215145236198 0.11115203047625784
1.1 0.18746386216325325 0.37975821499435475 -0.09531198391844535 0.15999087063461992 -0.04514675378825554 0.1607656441888246 0.17791437070056984 0.15283451921641208
 0.2105872802018351 0.05561576830223198
 -0.09548250228807631 0.1597124141002975 -0.5699563463320497 0.17386614935945657 0.02666237177262739 -0.02088812009024721 -0.009743110628196036 -0.019971080879685486
 -0.016218033758469728 -0.012738250015485434
 -0.04536752280548172 0.1605298964196174 0.026659569784368935 -0.02088149133934223 -0.5437887781590616 0.22204702947918778 -0.013099872949278895 -0.015007215118293398
 -0.017017943157672334 -0.0072369364078043496
 0.17751186129019153 0.15304566248149648 -0.009739118844562467 -0.019975531737743 -0.013101439928638343 -0.015013439892360373 -0.583244466448943 0.015137201709004287
 -0.05375220360277763 0.023838478298522415
 0.21028179907605257 0.05596101237987595 -0.016211523681350246 -0.012742033496916843 -0.01701709983103667 -0.007241325673416747 -0.05374165704255112 0.023828008959745448
 -0.6377101740785235 0.13325654538788448
1.11 0.1988877676983744 0.3617242897097951 -0.08057743160095426 0.17536555611765486 -0.028978867965091703 0.17228601329627524 0.19584605328644042 0.1343324480277404
 0.21751809743976708 0.03392791463580779
 -0.08079974798494999 0.1751494528018324 -0.54876960869189 0.18778901631892225 0.025160306888252437 -0.026330498532878534 -0.013857652553212791 -0.01819775150340001
 -0.018854482947269435 -0.009669565118609478
 -0.029216862867243832 0.17215437167213943 0.02515958451997076 -0.02633216420636552 -0.5206513264686481 0.23473500188786145 -0.016415069744953763 -0.012622054510786736
 -0.018768333194403238 -0.003989821769090791
 0.1955425333382032 0.134591825166377 -0.013857058810726339 -0.018201095241302617 -0.016414444331245726 -0.012625626343790055 -0.5803526024063265 0.030163053326604846
 -0.050954014251441214 0.03182441618586089
 0.21737057508845076 0.03430181691887687 -0.018854477023394878 -0.009675922049317812 -0.018769285385656097 -0.003996164366765884 -0.05096087640936419 0.031817522358263184
 -0.6254599735989498 0.1548480602341971
1.12 0.20759796064940345 0.3433847630480972 -0.06326667574341754 0.18961199633777567 -0.010432433471671441 0.18234425512093508 0.2113617510478666 0.11361293879588824
 0.22188740131618243 0.011604627154044351
 -0.0635059511291364 0.18944673674302712 -0.527643227137287 0.19957104927457675 0.02259621382466199 -0.03190259541852582 -0.017645787799381515 -0.015518459110090818
 -0.020892459968755214 -0.006024078186453183
 -0.010679581315218371 0.18221614659196936 0.022591108201849133 -0.03189578239918007 -0.4978139994393806 0.24514732673130568 -0.01927323366810461 -0.0094554312290176
 -0.019867176084983274 -0.00030887795696809894
 0.21114424319262587 0.11389743496630965 -0.017647580679335674 -0.01552241592011667 -0.019279903772319088 -0.00946066251144972 -0.57679884809289 0.04565242466476635
 -0.046950112887508104 0.03926091413535616
 0.22183951172531852 0.01191521640835814 -0.020897902088104863 -0.006025865822434272 -0.01987672875853689 -0.00030933460830159863 -0.04695195471225771 0.039267751673227866
 -0.6120738889224403 0.17570086822686393
1.13 0.21365039014815806 0.32535881536285494 -0.043410880782219344 0.20223755774652577 0.010438012008387957 0.19034478214550263 0.22423500580702405 0.09113394526196732
 0.22373669003402066 -0.01103720075352237
 -0.04360908628326597 0.20204815259866596 -0.5067398082894224 0.20920060319027162 0.01884145892615173 -0.03735900312478543 -0.020893957108138916 -0.012000331737716583
 -0.0222002946622767 -0.0019214302558212273
 0.010210362141858928 0.19022721761954786 0.01884280947328802 -0.03735893378644924 -0.4753315449413344 0.25348591126948855 -0.02149111875399946 -0.005598255607936745
 -0.02021155155615936 0.0036801098379970264
 0.2240208392415798 0.09134891831902907 -0.020898005511736727 -0.012003397220452624 -0.021495347492097493 -0.005599289934359507 -0.5726343661066241 0.06146623268936491
 -0.04188652042152726 0.04598528202013861
 0.2236186458760037 -0.010776288906149458 -0.02220273353498552 -0.001921824053368389 -0.020213443580128814 0.0036809011998989653 -0.041881546345492245 0.045981527061841165
 -0.597691344371769 0.19574006818184742
1.14 0.21720589519026262 0.30826829398030364 -0.02103429006808219 0.21267170707292968 0.03344071964143525 0.1958010095168426 0.23428266124992114 0.06730042356129773
 0.22293691653063646 -0.03361391429639919
 -0.021294888838240687 0.21258750686522432 -0.48653040539378895 0.21687672204646277 0.013862251751946346 -0.04246896285515316 -0.02342400593497467 -0.007769007016746134
 -0.02267403028123688 0.0024778820823447454
 0.03320434185206771 0.19574321752012758 0.013853831670282275 -0.04246159404910413 -0.4539008266563396 0.26000443055914974 -0.022904600562309127 -0.001194395348152684
 -0.019714816543257414 0.0078042028991079475
 0.23407865475943312 0.06753341199726888 -0.023418507560392616 -0.007764525650090406 -0.022903347558712137 -0.0011949219487325654 -0.5678233801248181 0.07746857155547485
 -0.035954115660338 0.051832212763811364
 0.22287690707217586 -0.03333300139167927 -0.02266986859358125 0.002478797021605663 -0.01971610411987065 0.007803154731602353 -0.03595961530116282 0.051835432865102796
 -0.5824386875917985 0.21481703095711324
1.15 0.21876541885393316 0.2927255704424578 0.0034992646428220727 0.22050258721081128 0.05820601892239973 0.19816816266442164 0.2413251856215279 0.04261235449984448
 0.21975687155446416 -0.055799975426424495
 0.0032794955142197513 0.22037798459469374 -0.46728519551914144 0.22284697533541017 0.007641236741754132 -0.046903929487006925 -0.025047008947137066 -0.002976091708644076
 -0.022243254016999232 0.0070010197255849435
 0.0579716105078184 0.1981011193918369 0.007641321967629154 -0.04690148158402201 -0.43347290957384116 0.2649602048746961 -0.02335335469325491 0.0035721113755012384
 -0.018334635487915463 0.011879205717918347
 0.24111511610703998 0.04283965665439659 -0.02504422782520801 -0.002977670326196596 -0.023352383274273816 0.0035704066843491207 -0.5622510859673232 0.09355237432112766
 -0.029339340623658876 0.05673793171949085
 0.21969708054086728 -0.055533346197960874 -0.022244663714956935 0.006999325268380327 -0.018337139290098267 0.011878812822020792 -0.029344086077036032 0.056745399086066135
 -0.5664430495943996 0.23296703801090252
1.16 0.21895243593308528 0.2790486209476982 0.029906616195080095 0.22512144139946189 0.08426416502444127 0.19699743506916836 0.2453904055669644 0.01746242782778755
 0.21422342923721974 -0.07734667097863446
 0.029690668403169928 0.22506621257838985 -0.44913645718964296 0.2273877780514366 0.00027395821494323236 -0.050382104034467676 -0.02565310040299158 0.0021722948881536105
 -0.020880192642268217 0.011456025500156232
 0.0840318231252676 0.19698983943901446 0.0002775896219392011 -0.050377412548309596 -0.4143103372319488 0.26875345710809784 -0.022761934648127244 0.00848242590507083
 -0.01607385688854573 0.015710815641266043
 0.24526781199945494 0.01773153672124358 -0.025652211457770774 0.002166637738296894 -0.022764057337923093 0.008479497763235528 -0.5561203816972772 0.10977104809509845
 -0.022189882015293937 0.06067391846345859
 0.21424695669699992 -0.07707674924853035 -0.02088421162951417 0.011451732200017179 -0.016078949963342772 0.015710556381618643 -0.02219382033557833 0.06068033327442911
 -0.5498918535755232 0.2503682645304985
1.17 0.2184514816292379 0.2674462542374286 0.05769424595193191 0.22612341460234892 0.11101648914458295 0.19191510566376188 0.24662340569959196 -0.007619797046017132
 0.2066958198992751 -0.09793842202504985
 0.057458868219232996 0.22604241780555054 -0.43242938759850336 0.23086340253419266 -0.008082249935744381 -0.05256007158102197 -0.025153754055020322 0.0074366163744562265
 -0.018599665605666872 0.015631394007183254
 0.11074569416291898 0.19188503146222957 -0.00807594042475148 -0.05255333021208428 -0.3965344510599071 0.27181039635645565 -0.021085730248835234 0.013282053322519263
 -0.012984769149844404 0.019090302907479605
 0.24649974941337172 -0.007359350959807966 -0.025156171132391044 0.00743327992789872 -0.021090521364655314 0.013283596012462423 -0.5491321241017355 0.12599902760988566
 -0.014700154954538068 0.06362297688675336
 0.20670197149421976 -0.09768440510216576 -0.01860410113747229 0.015631199500454704 -0.01298886662324357 0.019095277819720684 -0.014699804012841886 0.06362857350488567
 -0.5325787724670688 0.2667673068364382
1.18 0.21799871999299325 0.2577252926273843 0.08615576585792335 0.22317327085641533 0.13763337803041142 0.18263691622367093 0.24520148864547922 -0.03233895238035324
 0.1972842592490034 -0.1174439836773285
 0.08592290174988178 0.2231420745685134 -0.4169605481929453 0.23362176688705538 -0.017133449347111893 -0.05317273386761167 -0.0235477189600978 0.01257029937082849
 -0.015467721493918226 0.019334101780609934
 0.1373751626358385 0.18267795376962787 -0.017124446175712023 -0.053171884038189295 -0.37981698223708804 0.2742894019741568 -0.01836250436133428 0.0177219001906081
 -0.009165660598451269 0.021830712652250853
 0.245109752440502 -0.032111526390684035 -0.023547373762472755 0.01257005330962888 -0.018360788447570706 0.017725447093609972 -0.5413670145780299 0.14205153264110537
 -0.006961070204982656 0.06561598414137312
 0.1973064916281942 -0.11722255881060901 -0.01546901249351305 0.019335039597226166 -0.009163940722028542 0.02183467138896593 -0.006962597429593334 0.06562099109290025
 -0.5146943597886977 0.2821574790359226
1.19 0.21820746584729342 0.24963953703558278 0.11462241549176112 0.2161161355234083 0.16339514931345028 0.169232150723295 0.24136975494615792 -0.05640089508673112
 0.18627793188521982 -0.13581017512837382
 0.11432849916174408 0.21607248537254461 -0.40263368900486535 0.23606199869418926 -0.02652397701644569 -0.05202772462913198 -0.02087024448989562 0.017318683411995144
 -0.01158904186122144 0.022380515068348376
 0.16307410990016397 0.1692578543178349 -0.026515864502000372 -0.05202210834638911 -0.3640062939625638 0.27660989423185434 -0.014681658422692699 0.02155342473834549
 -0.004761059395564267 0.023768277102690815
 0.24120236238799558 -0.05614057962595159 -0.020864683721943153 0.01731790073240593 -0.014677185140254288 0.02155560521423955 -0.5328687105318547 0.15790283037802055
 0.0009092073679644457 0.0666647075306001
 0.18626575933493325 -0.13552609647656 -0.011588190311144166 0.022379590866770997 -0.0047593224749476574 0.023771114067046347 0.0009029495265220105 0.06667333628175995
 -0.4962800914650184 0.29659300762562235
1.2 0.21955576354057357 0.24259285000638436 0.14232437390777963 0.20491354380374638 0.18744761278767627 0.15175756032240934 0.2352045889436983 -0.07959536286130851
 0.17378392225764372 -0.15287406852312233
 0.14202652839472257 0.20494679683123623 -0.389221607881272 0.23826055273630586 -0.03585982455461483 -0.0490197654528395 -0.01721985188468129 0.021451370198741406
 -0.007112682831362828 0.024614000621695387
 0.18718186582826266 0.15188453025973533 -0.035859240133795316 -0.04902369227953988 -0.3488747872157727 0.2786643265693736 -0.01019279149733681 0.024565013904232137
 4.3509381513817784e-05 0.024776827090798773
 0.23512608073845087 -0.07929580552676366 -0.017217553534672605 0.02144916809259983 -0.010189650362903518 0.02456167482595152 -0.523581773173278 0.17347207031586534
 0.008830371552874253 0.06677133582632087
 0.17386063790147588 -0.15260130022690882 -0.007114144397734171 0.024614701121528842 4.347762238509837e-05 0.024776718179515243 0.008827599043747828 0.06678235880238727
 -0.47732643819393195 0.3099923176104208
1.21 0.2221400098270837 0.23602961510004736 0.16861221868301732 0.18983853208366389 0.20915833315381735 0.13064234588590015 0.2271002708742773 -0.10180151644236722
 0.16007170552298047 -0.1686520910286507
 0.16830988377978606 0.18986493072943458 -0.37684110046483527 0.24038350839223016 -0.04472322079953899 -0.044175881361873906 -0.012762241448654668 0.024774716779572648
 -0.0022251356867936736 0.025922333330101847
 0.2089361795563927 0.13079371682826138 -0.04473379955651509 -0.044189713506266326 -0.3345171595201957 0.28066094761549215 -0.005102015200568381 0.02659203750718683
 0.0050347983316171695 0.024777988448403936
 0.22706104989357687 -0.10147874131417826 -0.012766695680467711 0.024773640346876815 -0.005104043999617795 0.02658515722049536 -0.5134949679184158 0.18887887619513133
 0.016718960467234804 0.0659571734178752
 0.16019218581837436 -0.1683625738727572 -0.0022326020566178994 0.025926052610006856 0.005028426373388061 0.024776513583566057 0.016713590306427866 0.06596752869409911
 -0.4578070805156801 0.322409874304935
1.22 0.22614325617351402 0.22928823807250942 0.1928495383196262 0.1710818548985624 0.2279889344189833 0.1062820082701677 0.2172874861230033 -0.12294589107574819
 0.1452980152645366 -0.18320770469831116
 0.19254581862958822 0.17115930482130828 -0.365123922292623 0.2425619632326657 -0.05273831732930255 -0.03760710532703759 -0.007695647251792151 0.02713798075897436
 0.0028732623265436776 0.026242828401446334
 0.22774930572334548 0.10647895815955238 -0.05274223716300272 -0.037618292512304245 -0.3205324202699558 0.2827137543283044 0.00035515928489861476 0.02752687247086326
 0.00999413694619269 0.023753536764915477
 0.21729119790747264 -0.12260075514438216 -0.007701294886419027 0.02713679888961521 0.00035239813860012256 0.027523185746480643 -0.5024981861429287 0.20389945792345954
 0.024511505071791815 0.06425383782080851
 0.14546264052811403 -0.1829748070142241 0.0028699412620266187 0.026252206498996008 0.009994652014136868 0.02375862837960396 0.024522069815355103 0.06427373698882032
 -0.43781518546234316 0.33372248396838733
1.23 0.2312246303301015 0.22172507360594934 0.21448320701243323 0.14918169670012682 0.24331750843144206 0.07934834790256153 0.2059186306463232 -0.14294102574121845
 0.12967118207722736 -0.1965354453374374
 0.2141697316086512 0.149298004969151 -0.3539598630306632 0.2449193371019995 -0.05949194277470923 -0.029562550817276215 -0.002253568351374813 0.02843190455180797
 0.007954502303603507 0.02556150664811404
 0.24312071826292392 0.0795678614215338 -0.05950767362708309 -0.02957058919965229 -0.30674522241820595 0.2846871567864368 0.0059144882195637394 0.02731320674609929
 0.014685331645040755 0.021742899371694498
 0.20597221529441287 -0.1426708111013946 -0.002252989658602778 0.028440301340568106 0.005915910855822858 0.027313641337926024 -0.49057131409091576 0.2183075476073383
 0.03210063754405756 0.06166879046385593
 0.12981278343018623 -0.19631496215300456 0.007957583806691496 0.025568414138049698 0.014686334476911976 0.021742686427401684 0.03209964282976149 0.0616684221261285
 -0.41741369949926466 0.34372084670531977
1.24 0.2369859904058233 0.21286279884224585 0.23312642954614687 0.12457188330677538 0.25494314250255623 0.050393213504410915 0.19315405325223922 -0.16194734065944813
 0.11312813690569819 -0.2088242474581311
 0.23287613287294556 0.12474226031296903 -0.34302857320244307 0.24737853935020648 -0.06476297564296256 -0.020315028646691876 0.003351026379404787 0.028634076222731775
 0.012848930662393981 0.023910160408255273
 0.2547899317629817 0.05064961080539819 -0.06477096619741174 -0.020322323245964915 -0.2930485701254529 0.28656211395549974 0.0113481218812972 0.025976737670093134
 0.018935607567229226 0.01881955894833216
 0.19322609198056812 -0.16164806562518766 0.0033487310879826366 0.028633986179501934 0.011346045710310034 0.025972793293481445 -0.4779071728520775 0.23204717311815073
 0.0394349164963942 0.05818744990893202
 0.11329181244231447 -0.20859832727162306 0.012848171614241252 0.023911287051393636 0.018933746615149957 0.018816843003778148 0.03943832725545847 0.05818816795220813
 -0.39675377017827934 0.3524253696634416
1.25 0.24292766189586956 0.2024581361460252 0.2484937800385528 0.0978115178168427 0.2626211319669383 0.020061250924882548 0.17906149085726197 -0.17994108370446918
 0.09568833888023082 -0.2200086269685964
 0.24827807800007884 0.09799316854481341 -0.3323163250641194 0.24993919339951368 -0.06831695071005792 -0.010205136565086325 0.008885443066831514 0.027736313620712928
 0.017354665359611804 0.021339970436653307
 0.2624781676339012 0.020289479768699097 -0.0683190504240094 -0.010203810670100613 -0.27937414219226536 0.2881470055169154 0.016422092385465024 0.02356552468640422
 0.022555594024003183 0.015083833695986192
 0.17914277776379503 -0.17968089180807365 0.008884871439233962 0.027736552016479718 0.016420622436247416 0.023565659063031277 -0.4644893877202502 0.2448810450063695
 0.04642041431516902 0.053818502308639264
 0.09584766469126264 -0.21980454193924565 0.01735402835121703 0.0213400370367581 0.022554044542353848 0.015084200098815656 0.046419830440646695 0.05381764116163821
 -0.3759998458944857 0.35971577617052247
1.26 0.24850414297489754 0.19044533398828084 0.2604515435097077 0.06932882905490188 0.2663327843191948 -0.011097359004828965 0.16360295546253906 -0.19702652588978153
 0.07726626184934238 -0.2302020245667682
 0.26022875205741297 0.06950609832535447 -0.32173079824396883 0.2524247269555247 -0.07006041245150772 0.0004230547695509846 0.014159764866225954 0.025791506359969525
 0.02133120355385138 0.017948982469153118
 0.2661935098520565 -0.010835701949293897 -0.07006514378029209 0.0004153215217900932 -0.26575127156235556 0.28930814719694 0.02094596861702068 0.020197600735851407
 0.025422828585174754 0.010688981141208092
 0.16370251658860593 -0.19680257320568925 0.01416243097720544 0.025796934647929048 0.020950917277405997 0.02019827238358647 -0.45059279794651985 0.25692859767844894
 0.05297873061854571 0.04857977766061304
 0.07743976570533277 -0.23001946333240963 0.021333057045452394 0.017953031337917556 0.025425252965889683 0.010688729978185813 0.052972638257271575 0.04857994060450281
 -0.3552467525483117 0.3658248267027082
1.27 0.2531510361316735 0.17690008630426873 0.26883130773237823 0.039615499883930816 0.2660294661569002 -0.04247024559843648 0.14668688637255928 -0.2131411706873039
 0.05775932681351456 -0.2391958588675377
 0.26863355169585107 0.03980395194006589 -0.3112163198614056 0.2547978881327197 -0.0699447219673605 0.01117798521580204 0.018982741078380657 0.022879783091147035
 0.024626370724929587 0.013849981479331147
 0.26591938734284326 -0.04221562689779653 -0.06995022882985395 0.011173363870216509 -0.252142100664595 0.28991494795986006 0.024749077449144855 0.01599860414756249
 0.027412841697538427 0.0057847306061439
 0.14681315003342343 -0.2129353273183499 0.01898591597972434 0.02288643430830338 0.0247536375530682 0.016000989002120006 -0.4359733039011641 0.268040371087593
 0.058926410710966444 0.042461651047802904
 0.057952361292352934 -0.23904056164966078 0.02462940348045644 0.013855525393178435 0.02741597948762286 0.005786586800229225 0.058920976954013694 0.042462903985535184
 -0.33447969396877 0.37048193724827033
1.28 0.2563399612580117 0.16200303948101824 0.2735773006535914 0.0091697155232867 0.2617963782697796 -0.07356450493544081 0.12830272348371824 -0.22826097493836983