! AWR Design Environment (19377) Sat Dec 27 02:21:50 2025
! Document = 'EM_Extract_4_way'
! nPorts: 5, nXvals: 401
!
! Created with skrf 1.8.0 (http://scikit-rf.org).
# GHz S RI R 50.0 
!freq ReS11 ImS11 ReS12 ImS12 ReS13 ImS13
! ReS14 ImS14 ReS15 ImS15
! ReS21 ImS21 ReS22 ImS22 ReS23 ImS23
! ReS24 ImS24 ReS25 ImS25
! ReS31 ImS31 ReS32 ImS32 ReS33 ImS33
! ReS34 ImS34 ReS35 ImS35
! ReS41 ImS41 ReS42 ImS42 ReS43 ImS43
! ReS44 ImS44 ReS45 ImS45
! ReS51 ImS51 ReS52 ImS52 ReS53 ImS53
! ReS54 ImS54 ReS55 ImS55
!
1.0 0.05754401783380575 0.5159036382900111 -0.13288865865424904 0.005781094000093971 -0.0696595076795266 0.17594359924425784 0.2747750356059536 0.11283249751025305
 0.18100604733204176 -0.23852332401684917
 -0.13249906498373504 0.005706269787833711 -0.7251480453718352 -0.06405459778294999 0.029224828822539333 -0.00818959610601054 -0.0008116866914441522 -0.024817224091397725
 -0.024385304130827925 -0.005636384449897778
 -0.06953628146220157 0.1754158448788913 0.029228171123107802 -0.008190961307175944 -0.6168440137791172 -0.12162066414506073 -0.03270736512023987 -0.013362520144457445
 -0.02148495344267752 0.02840817862681746
 0.27405633727214196 0.11262593680361874 -0.0008160114304196025 -0.024828251519928943 -0.0327201528929653 -0.013362174511773814 -0.1558134460759481 0.04248248052244227
 0.09939135897793046 0.04422669408197818
 0.18055305553179887 -0.23784077681919658 -0.024392168881823592 -0.005631222125427834 -0.02148008128895903 0.028416445253135084 0.09937319454629744 0.04420632794815238
 0.2665044655967378 0.12582330163202965
1.01 0.08190759539625589 0.5037530426487437 -0.1357929651182618 0.0202106723837249 -0.05172723642437554 0.19060937183187643 0.28863460956022674 0.08657203399281611
 0.16304008601321635 -0.25503451533323174
 -0.1354524739197342 0.020109566766116166 -0.7164270142474122 -0.03530142268228087 0.02933324406009286 -0.013082370445218388 -0.005313495609531058 -0.024781525738912038
 -0.02539964575111607 -0.001693236852633643
 -0.05166719427663958 0.1901039144569876 0.02933377450180622 -0.013082128865480252 -0.610476786085837 -0.10856255480613977 -0.03572361858805698 -0.007300648589827256
 -0.01688825897443031 0.0325024867455299
 0.2878159756308201 0.08644647771911611 -0.00531219132630418 -0.024777638826110584 -0.035717413613124686 -0.007299550660409099 -0.15076188932161144 0.062168052568249296
 0.10426549146227226 0.033412329488660755
 0.16266454671335986 -0.25423338906706594 -0.025391044071900563 -0.001693099656729135 -0.016882470022546395 0.0324910669622739 0.1042470929021821 0.033406311206135304
 0.27521140338829714 0.11321645429480715
1.02 0.10454403825235417 0.4902913116351551 -0.13723835128679687 0.035339237638725894 -0.03100127339183218 0.2033098935193105 0.2995608416087664 0.05857378075326436
 0.14342474673287445 -0.2701013389875955
 -0.13687036820289694 0.035189058569241066 -0.7062009692114549 -0.0072087149861808355 0.028650247549947567 -0.018245483199109184 -0.009810876962962132 -0.023898753560243288
 -0.02576513763148407 0.002431504557121687
 -0.030993812044765114 0.2027349369833159 0.028650650443792787 -0.01824546426115048 -0.6051881948833051 -0.09637189397533426 -0.03748666433772355 -0.0005172082747565859
 -0.011426752702295888 0.035783491001053006
 0.2987086354626323 0.058596329840603714 -0.009805898032883948 -0.023902282837173452 -0.03748817887836496 -0.0005256024587262096 -0.14341685766433834 0.0812132933421346
 0.10800670520184365 0.022071268392660638
 0.14322117672907136 -0.2692042453553558 -0.02576293229225065 0.0024206314752860535 -0.01143965753529929 0.03577408561148431 0.1079835636155802 0.022086808015408774
 0.2828336011516085 0.09986776243910674
1.03 0.1254293809433043 0.4757226661861685 -0.13699266410605251 0.0509542303440709 -0.007768902554160606 0.21339666183829586 0.30736056512114274 0.02929931561325642
 0.1223957134628803 -0.28340652087582235
 -0.13659129880715787 0.050717197855784664 -0.6942075720206845 0.020037344405027125 0.027071039167025565 -0.023511704859429907 -0.014125025703603345 -0.022171382967093672
 -0.025434822575351092 0.006607838393990102
 -0.007853056589346128 0.21276035768661977 0.027074379633034728 -0.023517489473387908 -0.6008019892912657 -0.0846739280556256 -0.03782504740740365 0.006683646146856957
 -0.005284851851423887 0.03804062077027435
 0.30642072307276236 0.029504019862788736 -0.014118875428319706 -0.022180679366640716 -0.03782790476225862 0.006666678102419679 -0.13392091361371625 0.09935883696081521
 0.11046945219363513 0.010396285940833408
 0.12235065123929949 -0.28251950049882446 -0.025449073707892806 0.006599494035283825 -0.005305457452673931 0.03804818186209625 0.11049896656150328 0.010405332462061658
 0.28921252087373844 0.08588605513146126
1.04 0.14465955178686607 0.4602451210653008 -0.1350248653570311 0.0668721391370374 0.01755792339194914 0.22039939152751628 0.3118277488562923 -0.0008328835191348145
 0.1000337157218579 -0.2949838080194517
 -0.13468189149336818 0.06651892965799387 -0.6806421948146711 0.04621712590820738 0.024575664690458934 -0.028737126447896798 -0.01810274697967618 -0.0196611561116934
 -0.024433779651011785 0.010738808608022154
 0.017249806733998795 0.21968238411766405 0.024570372747645567 -0.028728516268893275 -0.5976416941389767 -0.07313633491300817 -0.03663567728897814 0.013952893339356814
 0.001328821484247181 0.0391366552425878
 0.3110388178079562 -0.0004173881995221118 -0.018108048569983878 -0.019676201441312727 -0.036668156321187396 0.013957134693800529 -0.1223670806311386 0.1162546981397638
 0.11174220517941141 -0.001527637652075107
 0.1001501306896458 -0.29410633094173155 -0.024448636136795165 0.010740435524866327 0.0013249302892052472 0.03916806820783351 0.11174049421750709 -0.0015351221431767642
 0.2943630841192392 0.07132485906907063
1.05 0.16232317292648268 0.4440701065407934 -0.13124941896948006 0.08291320647133921 0.04440382421388327 0.2237509353656209 0.3130583984495626 -0.03128225795074893
 0.07656007261415389 -0.3045264055500264
 -0.13105890243855953 0.08251201441859293 -0.6655379114632054 0.07118486712439501 0.021113351146163827 -0.033744499430777 -0.021620876282815105 -0.016443285900155452
 -0.022755058637135457 0.014721723539301202
 0.04391846001609505 0.22325130412074287 0.021114738426098106 -0.0337368239115238 -0.5952840582042226 -0.061337206970005706 -0.03395340268752722 0.020963691448277
 0.008179650148120447 0.03897531713410386
 0.3124202378239896 -0.030759877476946203 -0.021627258751555946 -0.016445427457327445 -0.03396186529153623 0.020978829885370646 -0.10912216194781335 0.1316446453460403
 0.11171799457203199 -0.013529875425206474
 0.07680084062258863 -0.3037760946965118 -0.022758599823064166 0.01473060240986783 0.008196285491493687 0.038989431633751834 0.11172221981461548 -0.013544508044178897
 0.29803606353574985 0.056520471721606465
1.06 0.17854781317103374 0.42724594712141634 -0.12570376684847145 0.09893606109904608 0.07216317464440908 0.22342700827256676 0.31104107244637696 -0.06174234790400951
 0.052216253763352434 -0.31208014776827414
 -0.12559703799477165 0.0985336984677589 -0.6492813825227054 0.09467687158396122 0.01670355793740034 -0.03837775831935601 -0.024555278452081733 -0.012583304598524768
 -0.020415807228073745 0.01845668270612999
 0.07163079754553381 0.22311318994551235 0.016712454619807998 -0.03837898232742737 -0.5938625566626777 -0.04922926652795022 -0.02982741058707555 0.02739414014900582
 0.015016435017126965 0.03751320272341176
 0.3105579456152279 -0.0611431227450667 -0.024560725785794928 -0.012585867132792087 -0.029825361633708428 0.027402739389037954 -0.09436384420253371 0.14530836837995428
 0.11043152423155893 -0.025477235891591475
 0.05261206394260341 -0.3113820511135217 -0.02041869066114804 0.01845803307315494 0.015022021799562935 0.037510920765703656 0.11042071332949868 -0.025469945422347744
 0.3004747798402254 0.04151177201762466
1.07 0.1933995609006628 0.40974435238848284 -0.11822977038344325 0.11470366580783142 0.10021549152917414 0.21918443306935156 0.3058715049846928 -0.09185300512529382
 0.027183946206008114 -0.3176135689342426
 -0.11822760056455421 0.11433596749636292 -0.631660278820225 0.1165934696756173 0.011378935194997669 -0.0424223085979894 -0.026783407787069516 -0.008189648328836776
 -0.017447598951031925 0.021828438467269305
 0.09971800420012032 0.21901218239733639 0.01137901811237953 -0.04242481043038174 -0.593000399775752 -0.036276885289361384 -0.02440080017128461 0.03291868816714471
 0.021563162159261542 0.03474893241051949
 0.30557300123856945 -0.09117146822470945 -0.026783392443101718 -0.008194983558722146 -0.024407219492491552 0.032913913052615686 -0.0784343991382451 0.15703265626643614
 0.10791711472117682 -0.03722684577936744
 0.027754015793867253 -0.3170229931092812 -0.017452931347344245 0.021819551169336426 0.02154664938829454 0.03475028564501213 0.10790336682435285 -0.03720213924872061
 0.3015075472919723 0.026627074721255566
1.08 0.20678338145802583 0.3915866008946584 -0.10892731993340012 0.13006371369950245 0.1279623852868792 0.21103292224709919 0.2976699935074319 -0.12124672122040404
 0.001676191240288044 -0.32098150300000383
 -0.108967672207173 0.129733784957042 -0.61323991808142 0.13688060075913522 0.005234674108074914 -0.04571829705917346 -0.028218081532669224 -0.0033996514561004548
 -0.013909110772275357 0.024728059526846726
 0.12750560520376228 0.21094707122996373 0.005233777694806142 -0.045722160855101585 -0.5925490767165817 -0.022497544924457286 -0.01791346163378906 0.03726576419319983
 0.027540043188034498 0.03075831897797115
 0.2975015348082435 -0.1205568339440489 -0.028218092929288802 -0.0034099455079694436 -0.01792726436581979 0.03725740929437589 -0.0615709059081701 0.16690492965996534
 0.10415431305435775 -0.04862275826917985
 0.00230241574430346 -0.3206131785173493 -0.01392493492090875 0.024725733125262495 0.027526291739731944 0.03077732256468138 0.10417890734548049 -0.0486130904206072
 0.3012923798955647 0.011822709099009586
1.09 0.2186678862789127 0.3728314269604093 -0.09767417495246637 0.14480654845099933 0.1548252752453678 0.19901510302238742 0.28658455054085585 -0.14967268904935851
 -0.024201379457840694 -0.3222810104687865
 -0.09780391206798753 0.14448350540026472 -0.5938591252632305 0.15544791036630348 -0.0016162740269528918 -0.04809462954482985 -0.028789368440115305 0.0016460098258151788
 -0.00987044172141793 0.027067435588512805
 0.15431784314238242 0.19904879957194632 -0.001615267877745054 -0.04809407187542218 -0.5920625650911329 -0.007623280237333135 -0.010652861638918659 0.04023946594656919
 0.032721353243238896 0.025689689070243518
 0.28662172784334206 -0.14897893694550407 -0.0287964136685265 0.0016375977458803234 -0.01066686897757241 0.04024607309304227 -0.04401463070309758 0.17482264092553532
 0.09927194486801953 -0.05957491228504908
 -0.023526212987386313 -0.32214644060214276 -0.009886716314011832 0.027078292283477422 0.03272988224857696 0.02571654067187363 0.09930947119521093 -0.0595844316422428
 0.2998260681595719 -0.0027506160787113057
1.1 0.228935623351683 0.35349330607024876 -0.08452456023581521 0.1587144651986931 0.18015868860179177 0.1832494996639963 0.2727597923677323 -0.17684107952924452
 -0.050255374452990935 -0.32152612068623737
 -0.08470189968463744 0.15845379097852308 -0.5736509755380587 0.17221015580213964 -0.009041658304818716 -0.04940284858662547 -0.02845744069626069 0.006807305584168236
 -0.005407990690816127 0.02877329272268318
 0.17969979328745747 0.18344293367544953 -0.009030258871963058 -0.04941010465232362 -0.591217892736841 0.008388491163548974 -0.0029106586854778993 0.04171885106975689
 0.03692598705271428 0.01970824011157482
 0.27295753825178276 -0.17627097676985287 -0.02846975839773466 0.00680272361105423 -0.0029114866777903083 0.041730183799094586 -0.025912073882844566 0.18070601540803008
 0.09329041581228911 -0.06998568006095048
 -0.04969884614671792 -0.32150852232664023 -0.00541439291415728 0.028786955349529547 0.03694305051361418 0.019711623053051658 0.09329366319962935 -0.07000583120144308
 0.29701731304821943 -0.01702246071271287
1.11 0.23750631843594155 0.3336232872830416 -0.06943499459116083 0.17159645762626055 0.20348871698072007 0.16414092702974412 0.2563543617400214 -0.20262532479306708
 -0.07641171808978067 -0.318635515784372
 -0.06965758181766535 0.17139924904013099 -0.5530822120692938 0.18701206438523932 -0.016860944522234547 -0.049543712185733516 -0.027196675636255045 0.011936653129684687
 -0.0006046721379241453 0.0297601067982043
 0.2031334674873417 0.16439971095076403 -0.016857229351062198 -0.049550536583576874 -0.5898590652156596 0.025376608557513083 0.005003609332440382 0.04165377734844709
 0.03999584654300353 0.013005539199570303
 0.25671703556599235 -0.20220573735185124 -0.027215464798856476 0.011939043695522091 0.005003197804529375 0.04167541910790919 -0.007636792691030349 0.18443258240948357
 0.08624887153958324 -0.07976217831012386
 -0.07589018840124317 -0.3187331936204636 -0.0006079943511851104 0.029773604848488556 0.040010135714104694 0.013009881416706046 0.08622919669969062 -0.07975647875880036
 0.29293927139520887 -0.03064658350029771
1.12 0.24415124017928994 0.3134597543853485 -0.052432099848547985 0.1831075994821897 0.22427269983184947 0.1418999055445432 0.23756492454189784 -0.2267873026528647
 -0.10251511581473416 -0.3136930295867377
 -0.052666679514742125 0.18296011449461436 -0.532355760233273 0.19990413832645906 -0.024858247571704295 -0.04837604984196938 -0.024994574521615142 0.016858385230064492
 0.004425232108302369 0.02995052415234112
 0.22401045206694498 0.142196719509562 -0.024858756646001786 -0.048386091431870865 -0.5873267534791494 0.043177758488425234 0.012754628981996799 0.040036418595298565
 0.04180427826647159 0.005820438886712455
 0.23788579012426922 -0.22644174517075694 -0.02500485509317139 0.01686394020267795 0.012758926459876647 0.04004462810378168 0.010471628832347476 0.18610434290069697
 0.07820346225227508 -0.08875863995121232
 -0.10203222430506728 -0.31378769975950077 0.004423751685587434 0.029957589977895323 0.04180654968963867 0.005821028859612078 0.07819475225756367 -0.08874078231359374
 0.28779930877486193 -0.043457242228064366
1.13 0.24878789201344595 0.2931997185243055 -0.03365353699522054 0.19296362295798028 0.24215535774244487 0.1170057039353829 0.21648094807838328 -0.24915628322635597
 -0.1284722198239545 -0.3065806893155769
 -0.03384804499371918 0.1927916724234034 -0.5115423229008536 0.2108146174024976 -0.03278620438953373 -0.045863446330525554 -0.02187259557122869 0.02139358130436019
 0.00955065945981148 0.029275152447653274
 0.2419025883672882 0.11722883608198019 -0.03279183679872245 -0.045873908135572336 -0.5835927756330322 0.06151540971534583 0.02004214676127577 0.036934505862190804
 0.04227398793930272 -0.0016132350934634592
 0.2167636470177411 -0.24879449940834295 -0.02188703096117601 0.02139759807142443 0.02003882325422266 0.036946827152752514 0.028155474166314785 0.18596038914217597
 0.06923693943285587 -0.09688470837705063
 -0.12798693920926996 -0.30669317226297227 0.009544703435737253 0.02929143679540132 0.04228438354261414 -0.0016000345895860128 0.06924871751089451 -0.09687829403441119
 0.2818189031202814 -0.05548122050934175
1.14 0.2513031294973645 0.2731415897543131 -0.013162190396749292 0.2008359346305722 0.2568192810381696 0.08987770979000316 0.19322470634050404 -0.2694801137819051
 -0.15410875870236254 -0.29721969061770187
 -0.013410109332787067 0.20076481243272667 -0.4910441563459886 0.21984913607624007 -0.040428659961825174 -0.042050688486305596 -0.01791231934267033 0.025380544034183737
 0.014627463308155368 0.027721831421195782
 0.25657713563107376 0.09012440655630069 -0.04042209773073396 -0.042035259696412454 -0.5785841334723771 0.08009680781872917 0.026579841306960762 0.0325080794471344
 0.04140682019207355 -0.009026854432621108
 0.19353543248562827 -0.26916657726578586 -0.01791473872885517 0.02538072890796021 0.02658302394645205 0.03252275144807567 0.04526504991096695 0.18401390330865616
 0.05942937622836677 -0.10406362539427946
 -0.15372129218039723 -0.2974303558964594 0.014630037554767387 0.02773103821518034 0.041431798286390494 -0.00902506661483833 0.059444573972671534 -0.10408921644905265
 0.27498756926871326 -0.06657363117785942
1.15 0.25178846746968403 0.2536050574790395 0.008744090971519645 0.20658032558912204 0.26793264038956643 0.061053906438004756 0.168098904239817 -0.2876235843634969
 -0.17932334000577604 -0.2857247094483299
 0.008535023523903975 0.2064689874393455 -0.47109295064961404 0.2271280394609956 -0.04752242149447386 -0.03694354509536528 -0.013196599301366461 0.02865415480982649
 0.019509518160081948 0.02526705800397094
 0.26768480766974945 0.061296884963080125 -0.0475147925636072 -0.03694334465718902 -0.5721791730415348 0.09865089254427986 0.03212996136307275 0.026940699402052033
 0.03923182192929658 -0.01618481751963085
 0.16837027244850306 -0.28734481787730065 -0.013204107362874556 0.02866006155742796 0.03214021809900512 0.026952728771580607 0.061601452631135485 0.18052002697047662
 0.04889099465836265 -0.11025338569278893
 -0.1789627444199005 -0.2858573844537534 0.019513065132344756 0.025278272550860497 0.039250237288773276 -0.016190047230641172 0.04889350218009671 -0.11026234320124184
 0.2674671771145639 -0.07680515050744148
1.16 0.2503443301385034 0.23487306705200242 0.03192933766151994 0.20982426125217582 0.27536038480362346 0.03097455580837585 0.14112891862293203 -0.30324782499707453
 -0.20376609464870418 -0.27182723975206496
 0.03172657839283752 0.20977647761958304 -0.45183007291859983 0.2327890556768912 -0.05388226195245677 -0.030651123680310668 -0.007848110876995612 0.031067227116884373
 0.02402538118946894 0.02192104588651576
 0.2752099997207357 0.03127175869063752 -0.05387278714209179 -0.03066114160307308 -0.5646252192047521 0.11707600419923035 0.036505955043444 0.02044371032846299
 0.035805688986291336 -0.022852135705787525
 0.14147074062296833 -0.3030814975809911 -0.007857840435538952 0.031076237156199272 0.03652036383613988 0.020452229935594285 0.0771971076282975 0.17550599698491942
 0.03767965081490855 -0.11524750358598262
 -0.20347087418984297 -0.27201452342706783 0.024029736589700625 0.021930091199009714 0.03581553234514114 -0.022863503929265613 0.03766465754382022 -0.1152446739696883
 0.2591516003536652 -0.08611683605709704
1.17 0.24701209363189164 0.21721240431573674 0.05613976658869869 0.21034444074643635 0.279092669810528 0.00026057454691067773 0.1127220653798233 -0.3164700189273692
 -0.2273610248637645 -0.25567494846222233
 0.05591936617603719 0.210271299225042 -0.4336578044741455 0.2370552186529758 -0.059274816646139504 -0.023293224941988315 -0.0020193765216738606 0.03249945910823901
 0.02800707867866297 0.017716255314501418
 0.2789434984995865 0.0005505702046371705 -0.059274467158994995 -0.023303222248254117 -0.5557060334055712 0.13510004795753622 0.0395835346944864 0.013285414896419021
 0.031244926438176515 -0.028815283429449577
 0.11300211757085549 -0.31621935024897807 -0.002024388242198134 0.03250445551745059 0.039587957374550994 0.01328672215474839 0.09156810236261391 0.1690279807264391
 0.025911387544141424 -0.11902666647433777
 -0.2270172638724589 -0.25584761153664115 0.028011907698829528 0.017726937227576834 0.03125385942932777 -0.028820841255027325 0.025920823514752323 -0.11904116211641698
 0.25024832844229256 -0.09391999687479274
1.18 0.2421173802887544 0.2008769620126092 0.08094915336053247 0.20787887124523932 0.27911571356051873 -0.030657432203866727 0.08296917803145959 -0.3268324760968658
 -0.24971863359549668 -0.23731491289310883
 0.08073191827771552 0.20785041375286575 -0.4164861845537613 0.24016389926496295 -0.06355014356434698 -0.015041575574829352 0.004103286661698536 0.03283072362378738
 0.031278806263861994 0.01275302262246262
 0.2790059770187823 -0.030401553663232866 -0.06354911196259844 -0.015041468446218757 -0.5456195678387482 0.15242307759133514 0.04125913310939805 0.005710122340362984
 0.025708248313108875 -0.033884517716477144
 0.08327668521866 -0.3266155362987186 0.0040976411771420996 0.03283387063002784 0.04126178148190227 0.005718018619988267 0.10465784642038622 0.16149608390333722
 0.0137681207467579 -0.12149400749804926
 -0.24940169474602508 -0.23753757099125233 0.03128357968262223 0.012763762184367004 0.025723202290888512 -0.033887408197471915 0.013777845675534896 -0.12151476847828013
 0.24122405950716308 -0.10064689103299775
1.19 0.23583982303475848 0.1861665447294757 0.10599702951958609 0.20226343400107355 0.2755013588047314 -0.0613103915046072 0.05218195152397792 -0.33442259085134385
 -0.2707321137246866 -0.21678227479032877
 0.10572287386015147 0.20222133184436814 -0.40036952064698245 0.24243641721153072 -0.06652736870686157 -0.006083388865264576 0.010309393559893036 0.03199621696657637
 0.033674878359636826 0.007135709263843581
 0.27530763124587043 -0.061016014279375946 -0.0665163067777624 -0.006075083416408344 -0.5345522473695106 0.16892509914403064 0.04150037969685904 -0.001997951473371037
 0.019364687906653955 -0.03789274869978025
 0.05252879190885136 -0.3341382325543998 0.010304639650022257 0.03199946784045508 0.04151025888568917 -0.0019870686318860455 0.11632560472591816 0.15314316783971405
 0.0013557368429637305 -0.12262751647657992
 -0.2703451742816462 -0.2169699557527211 0.03368020458650064 0.007141828619971137 0.019381243598950774 -0.03790170601590376 0.0013531732646099343 -0.12264465769488338
 0.2322357292920107 -0.10606484437091622
1.2 0.2285603234535788 0.17314247046384204 0.1307789158222675 0.19334321372262114 0.26816663350517456 -0.09121339228858705 0.020684828137678236 -0.338894049074894
 -0.2900338888095435 -0.19419200157368063
 0.13049989367534023 0.19337088152831106 -0.38524803314328376 0.24393579513882752 -0.06807445904627936 0.003375899924643801 0.0163607775333246 0.02996373757067208
 0.03505727221027688 0.0010288560779102153
 0.2680776055545171 -0.09087153641751958 -0.06806659798824709 0.00337653664800853 -0.5226192165465542 0.18447370251512488 0.04031080861767729 -0.009562575425244286
 0.012426895538142418 -0.04071638200102463
 0.02107255808697595 -0.3387706655838644 0.016362183982955185 0.02997380902481913 0.04032781887053484 -0.009561489054584538 0.12674009831396318 0.144350652111842
 -0.011147287178681142 -0.12238432111729941
 -0.28969068686941185 -0.19443443945416652 0.03506214923828209 0.0010313694990287446 0.012433438644038097 -0.040725773027183367 -0.011150360761997819 -0.12236706924504272
 0.22332229940477585 -0.1105532496692732
1.21 0.22040820797107621 0.16196395583968004 0.1548580388674986 0.1811759620789582 0.2574606782482758 -0.11993829838558098 -0.011240101362391248 -0.34034851989236914
 -0.3074452321698745 -0.16967796539537772
 0.15457382077038956 0.18119534247690416 -0.3714062197725953 0.2448758943443198 -0.06813323499842569 0.013081869135680272 0.022024432864225337 0.02676153043843074
 0.03530877274723049 -0.0053809829599891
 0.2574212799429089 -0.11956931954835973 -0.06813797249605424 0.013071491544355801 -0.5099894155308712 0.1991958264299019 0.03776789087335909 -0.016734344204419473
 0.005109471405309406 -0.042270825983082655
 -0.0108256139849281 -0.34021857055104127 0.022024318180611915 0.026774725895578607 0.037778863552519325 -0.016735380415460115 0.13593146051362034 0.13495446279238466
 -0.02357169018786863 -0.12067587867300039
 -0.30716039473348133 -0.16994575011847646 0.035322433806270336 -0.005379452908602216 0.005108641878926286 -0.04228519903421813 -0.023591006302840094 -0.12068209583205092
 0.21436597176546096 -0.11392088065553285
1.22 0.21191665306932012 0.15265878788053872 0.17772042445050032 0.1657241988786117 0.24362234540172872 -0.14706989829574146 -0.04330593476462732 -0.33876852299667676
 -0.32290224025704095 -0.14340577294141543
 0.17743241485874092 0.16579007378879465 -0.35861728634640544 0.24547922223619542 -0.06668668398617451 0.022780884440839116 0.027065651069360507 0.022467459672549563
 0.03436996606721911 -0.011881777169951752
 0.24363767173326545 -0.14667677283633626 -0.06669228688952142 0.022767603125239986 -0.4967229884490586 0.21292115778266912 0.033991005558935444 -0.023277145775514464
 -0.002355825366855132 -0.042535248677865935
 -0.042881731402409334 -0.33863640847775145 0.027065504017072056 0.022475402283096226 0.033994667679554016 -0.023281035054069824 0.14378363549146314 0.12517316917246368
 -0.03582530369672211 -0.11762494348279784
 -0.3225875362952592 -0.1436954686145638 0.03437811018045267 -0.011880583936487379 -0.00236051440387683 -0.04254295050147995 -0.03583594566369963 -0.1176294031612066
 0.20563984763533336 -0.116321397595595
1.23 0.20334072547176704 0.14517127510370448 0.19883653848538127 0.14725480018215703 0.22690593010664178 -0.17213309324243053 -0.07509091104356493 -0.33394874038301325
 -0.33604132212285065 -0.11552014070723796
 0.1985365222697143 0.14735607852491106 -0.34687186864293384 0.24601444178185602 -0.06374428253807152 0.032171320090871855 0.031231087350722136 0.017210333300843393
 0.032199458657726165 -0.01821623191735483
 0.22697970828591202 -0.17182891706673775 -0.0637614893037893 0.03218348251061134 -0.482961311935696 0.22551563977938796 0.02911271791101802 -0.02895449017326178
 -0.009729486197456373 -0.04148235273578989
 -0.07468812475248768 -0.33394035842335434 0.03124353754281708 0.01722092867881394 0.029121210181963647 -0.028955108062361123 0.15028331357893254 0.11528742287292161
 -0.047673538738454674 -0.11317099706665557
 -0.335793217874872 -0.11585645556700785 0.03221294345822601 -0.018220838725127756 -0.009725577258284837 -0.04148706195830361 -0.04767250578018563 -0.11316202516869873
 0.1973630233197828 -0.11757491497258532
1.24 0.1949653518297827 0.1394008551589762 0.21778680619365115 0.1259766818479336 0.20769043511356677 -0.19498169943244686 -0.10638354757598258 -0.32618273654362623
 -0.34677654855347306 -0.08624310786832537
 0.21754323536713635 0.12613074587365447 -0.3359008201823796 0.24656020536759035 -0.05940340899520963 0.04107601420685355 0.034369890164879714 0.011177247016946347
 0.028835579736906383 -0.02415864541561083
 0.20779068992048935 -0.19464856467966452 -0.0594059082152655 0.041070830812659796 -0.46901342145398195 0.23706586901235732 0.023347929507301968 -0.03360602169535219
 -0.016770661992835015 -0.039163157858182876
 -0.10598591689539553 -0.32615545837158955 0.03437251228024109 0.011180468644660197 0.02334992170172802 -0.03361006468096147 0.15556440690356974 0.10559806623785675
 -0.058988910536910154 -0.10738209058123832
 -0.34654052885460007 -0.08661097823847393 0.02884306001395209 -0.02415786560317605 -0.016770661934736256 -0.039170177885559265 -0.0589826958409086 -0.1073914523848204
 0.18980901617228124 -0.11792892021330055
1.25 0.18707197405571335 0.13517993165162745 0.2341730564768644 0.10224457802953621 0.18636523589021747 -0.21532074585981312 -0.13684560732897325 -0.3153965220377429
 -0.3548322941373022 -0.05586254035027456
 0.23396043258769325 0.1024107005280302 -0.3256843665394351 0.24728721385091224 -0.053760757804394564 0.04923847274767855 0.03630211096062247 0.0045774559394006886
 0.02434536477379357 -0.029442355985985165
 0.18647647535298878 -0.21503590227874644 -0.05376189824783535 0.04923742263571981 -0.4549335753660118 0.2475042182853205 0.016901715899831356 -0.037107592340147946
 -0.023263764732029377 -0.03567015549407661
 -0.13645333182453295 -0.3154159780529172 0.036305112877881456 0.004583013267551514 0.01690780684622419 -0.03710923566326522 0.1596682858657459 0.09622724877218276
 -0.06957670640015043 -0.10032621949410431
 -0.3546361191025874 -0.05623069827824373 0.02435331234645234 -0.029441860524765367 -0.023261316682031966 -0.03567789219787086 -0.06957542471373164 -0.1003304028800745
 0.18302064125062173 -0.1175906724362846
1.26 0.17987874362395553 0.13239355066307376 0.2477148621103547 0.07635771570767891 0.16325926457526238 -0.2330945927315159 -0.16614692337854312 -0.3016616125805835
 -0.3601823060845563 -0.0245682472157512
 0.24749412788390276 0.07651975595283808 -0.31607495849604483 0.24816446720788837 -0.046953710265564844 0.0564991077288831 0.036930763936336465 -0.00234199014395352
 0.018863004426665452 -0.03386894015372624
 0.1633899087617015 -0.23285562662944656 -0.046963879975115246 0.056510269408571956 -0.4410136170718908 0.25712687646642646 0.010006741318023447 -0.03937805339696158
 -0.029036293575776105 -0.031139682746302473
 -0.16580108489786127 -0.30169368850524386 0.036939323521112594 -0.0023397081281468553 0.010009588493316068 -0.03937823569171356 0.16292835123982818 0.0872237909409787
 -0.0792892887135006 -0.09207953442563144
 -0.35996277495003165 -0.0249096592610758 0.018869283277783585 -0.03386932462948574 -0.029028908307580824 -0.031139709382065322 -0.07927266347895234 -0.09207149094984483
 0.1769215222388594 -0.11683865368834433
1.27 0.17354639752859355 0.13086096687496762 0.2580703579219156 0.04872859860786909 0.13868043573615232 -0.24816008693063335 -0.19405730089613482 -0.2851059954910372
 -0.3626432463769765 0.007397041362903043
 0.2578720421233182 0.04890288595164326 -0.3069178227353023 0.24927726827100752 -0.03915406206094412 0.0626718715973381 0.036217810568006145 -0.009312604883105573
 0.012568524259433958 -0.037241964519143154
 0.1388396033001933 -0.24794781159540163 -0.039167275531872506 0.06268456081791764 -0.4269842662228455 0.2659543495862071 0.0028939277046654424 -0.04037815946234604
 -0.03391602196798431 -0.02571415091402905
 -0.19368650358871436 -0.28521760532804374 0.036230612898575425 -0.00930513804329025 0.0029028466568777667 -0.040379203306972124 0.1653466740941602 0.07871699569585576
 -0.0879326447594833 -0.08278371318783762
 -0.3624926327449147 0.007022319047564686 0.012579471525289845 -0.03724585956659382 -0.03390966533830569 -0.025718491811393743 -0.08792779095719087 -0.08277144956204305
 0.17152792628710567 -0.11555305276059599
1.28 0.168268880062435 0.13029871377887384 0.2650513478476739 0.019831243556412297 0.11305523758030868 -0.26051424362106984 -0.22025289272385612 -0.26592758881088313
 -0.3620665647201682 0.03972792534016963