! AWR Design Environment (19377) Sat Dec 27 02:21:50 2025
! Document = 'EM_Extract_4_way'
! nPorts: 5, nXvals: 401
!
! Created with skrf 1.8.0 (http://scikit-rf.org).
# GHz S RI R 50.0 
!freq ReS11 ImS11 ReS12 ImS12 ReS13 ImS13
! ReS14 ImS14 ReS15 ImS15
! ReS21 ImS21 ReS22 ImS22 ReS23 ImS23
! ReS24 ImS24 ReS25 ImS25
! ReS31 ImS31 ReS32 ImS32 ReS33 ImS33
! ReS34 ImS34 ReS35 ImS35
! ReS41 ImS41 ReS42 ImS42 ReS43 ImS43
! ReS44 ImS44 ReS45 ImS45
! ReS51 ImS51 ReS52 ImS52 ReS53 ImS53
! ReS54 ImS54 ReS55 ImS55
!
1.0 -0.025742402025533427 0.3379008047163471 -0.13729743325662705 0.02103696539436227 0.03640411309774124 0.18286989463425365 0.1666767537495704 -0.3120741705557998
 -0.00452248890549267 0.013920851020479809
 -0.13690146255519317 0.02091521010560529 -0.7240500394207166 -0.06527233446387429 0.01948608371690983 -0.020670903387336233 -0.028346234923667807 -0.001211932993996329
 0.0011632273300280277 -0.0001561373774995665
 0.03622143505521383 0.1823569248369798 0.01948705160681546 -0.020672386248046792 -0.7046361019462642 -0.10095202642235837 6.331060081311585e-05 0.038090995738420105
 -0.0002789670795150347 -0.0015510393422209303
 0.16627559893634533 -0.3111932772687005 -0.02835281175143756 -0.0012047531625379347 7.290816528384e-05 0.038097052404777024 0.26474416285886754 0.09810432964558187
 -0.001926361746772511 0.005106215668773992
 -0.004518555808067046 0.013876235487659719 0.0011632302599038147 -0.00015583900449867924 -0.00027853284139520834 -0.0015509690143147238 -0.0019285048173528032 0.0051039360442831395
 -0.7766219230399523 -0.010879116565011546
1.01 -0.026095332785560463 0.33604752473370536 -0.13712747117628768 0.036668334875465 0.05978031892357694 0.1833336275657691 0.13758083176505534 -0.3259138139400269
 -0.0031920878108921105 0.01563419997027516
 -0.13678954098843227 0.03652458805749218 -0.715578708073184 -0.03684810954631541 0.017020237173184537 -0.024532790727521087 -0.028313969478815055 0.0035757118036083006
 0.0012203537945199019 -0.00040897317491572153
 0.05956516396984528 0.18288200255758802 0.017019345404333502 -0.024533006490961167 -0.7021521812024623 -0.07811501266620638 0.006923587753475281 0.03814691363334999
 -0.0006444361421448065 -0.0016257117052395616
 0.13730602921333104 -0.3249169491080001 -0.028304474266397185 0.0035740208269207 0.006919582548200185 0.038134778024336874 0.2687977430921098 0.08615547978323207
 -0.0013773555454907663 0.0057452510157833
 -0.003181538688634248 0.015591298322600205 0.001219908741218331 -0.00040946791757942157 -0.0006450353064862684 -0.0016251080711559348 -0.0013747126400808316 0.005746685523915745
 -0.768344589564005 0.023265925120849133
1.02 -0.026869818676390614 0.33649852133331126 -0.13517198803473637 0.05236924701770737 0.08355316145609977 0.18021012048971397 0.10728413003735694 -0.33668379140702026
 -0.0014957832918393755 0.017295535204972956
 -0.13481619684482044 0.0521725264163651 -0.7057038650179026 -0.009038028181848507 0.013830594782704103 -0.02809436296539585 -0.027453753385998196 0.008303688493569772
 0.0012256521406358869 -0.0006946246443976891
 0.08324089533713323 0.1797170590125884 0.013828828334578911 -0.0280905310041926 -0.6993979913039245 -0.05493352611994449 0.013779401403505951 0.036800685038228476
 -0.0010583918612315452 -0.0016145334603522312
 0.10723793063080518 -0.3356218818517072 -0.027453747346503295 0.008291392627863551 0.01376457069112218 0.0368066742859598 0.27191871521354327 0.07417355130040262
 -0.0006865921508245153 0.006356247828767226
 -0.0015037817534852142 0.017244922313606935 0.0012257774467693161 -0.000694157305695578 -0.0010579119435978272 -0.0016149600937239595 -0.0006861235138538874 0.006356543484165681
 -0.7582767817569783 0.05727260712950473
1.03 -0.027574338393764462 0.3393129034878972 -0.13133649495380928 0.06782506512299197 0.10691228876764752 0.17335316382974145 0.07627709644983549 -0.34412365465846473
 0.0005695288148831611 0.018875476488544353
 -0.13096237768884678 0.06753825570367647 -0.6941550328661839 0.01800673206744696 0.009975216418729714 -0.031172315645728033 -0.025775411594079423 0.012798688785747952
 0.00117010430216005 -0.0010033851736640845
 0.1064895621377506 0.172865235843053 0.00997364413379036 -0.03117318073878498 -0.6955272296634284 -0.03139682757030261 0.020282906324737587 0.0340702880106093
 -0.0015014814016709908 -0.0015026490174187242
 0.07641739099395081 -0.3431193163439716 -0.02579256109081811 0.012792948444039175 0.02027476820563391 0.034095181482646494 0.27405988098043155 0.06225241381003191
 0.00014625098140237745 0.006924412515008023
 0.0005542184458150816 0.018821684090099863 0.0011705809941991428 -0.0010034646611270257 -0.001501543906156876 -0.0015033606784247582 0.00014817307168769054 0.0069231475007599675
 -0.7459787623468619 0.09095931092915949
1.04 -0.027465432048617136 0.34445058831761977 -0.12575978106216534 0.08280083457358992 0.12919763730589226 0.1630036472316574 0.04485886794268921 -0.34834493594134336
 0.0030428647430563744 0.020286072951233834
 -0.12546271391352332 0.0824086656714787 -0.6811063538628793 0.04409508134493621 0.0055705601545135135 -0.03368743534415027 -0.02336782434435956 0.01694406103135613
 0.0010423192630293508 -0.00132431784218281
 0.12856636179702732 0.16260042767012792 0.005571596169183729 -0.03367600684602067 -0.6910521833061741 -0.0076221770010112405 0.026143778921819075 0.03008520143389346
 -0.0019486920698427532 -0.0012731365469546099
 0.0451830225228845 -0.34740095004991633 -0.023383154987210202 0.01694918156003563 0.026163739695935675 0.030113250117872165 0.2753244438592272 0.05042023331812889
 0.001137352759132157 0.0074149660984208126
 0.003000152265579791 0.02022994246425718 0.0010431356569943623 -0.0013238168558596653 -0.0019488436540835048 -0.0012745704679440325 0.001133882797459974 0.007411948035521439
 -0.7317790256661321 0.12409446870819055
1.05 -0.026055985462113934 0.35171856315385885 -0.11852104097814614 0.09710687924179162 0.14965383408680794 0.14944566633396325 0.01348549765937989 -0.3491892138400665
 0.005889962067452922 0.021433391525341437
 -0.11838300568808459 0.09669083765159761 -0.666565082052114 0.06910478004241262 0.0007163120502016716 -0.03553866974425533 -0.02028807298969776 0.020625641893977108
 0.0008342970856304188 -0.0016395545261235558
 0.1490134404106042 0.14932610203412458 0.00072371682938757 -0.03553410136630427 -0.6853244254046134 0.016242250971906527 0.031110251852356954 0.025026503100026538
 -0.0023666931427296853 -0.0009206298391935948
 0.013919875503877313 -0.34842740359982505 -0.020289699606793943 0.020635715601253733 0.031133455024177293 0.025023898461210687 0.27557588265395533 0.03895948255532183
 0.0022722347624707737 0.007788547014452196
 0.005841887723402575 0.021388716810709273 0.0008342579029766646 -0.0016393813212900515 -0.002366938091998682 -0.0009202151018379306 0.0022695955064119637 0.007786095559466887
 -0.7155573715407293 0.15652866559521209
1.06 -0.02282541926324458 0.3607237859987108 -0.10982943743085288 0.11063028035211885 0.16794104025151999 0.13327447518902513 -0.017447623663080725 -0.3468928968724452
 0.00912082073477166 0.022259305353322784
 -0.10977401399616414 0.11022842025365301 -0.6508829037848097 0.09279155567084334 -0.004481708435982851 -0.03668506759403339 -0.01662078813580962 0.023744710601009265
 0.0005398841202814065 -0.0019325378935690848
 0.16739041595435966 0.13331797610751478 -0.0044755522911934945 -0.03669307984303629 -0.6787752402732553 0.03997716127345733 0.03499355185288801 0.019101921175356536
 -0.002724892163341257 -0.000443595529108046
 -0.016858980487770604 -0.3462375457267252 -0.016623430826488393 0.023746774450079465 0.03499361165221069 0.019094789946604865 0.2751458964247321 0.027826348462043668
 0.0035483497066256158 0.008019178300030915
 0.009068094433699221 0.022242262289489053 0.0005405824247621356 -0.001933581996527162 -0.00272597984249331 -0.00044378228602827413 0.003548774264973033 0.008023632895380516
 -0.6973512236631869 0.18799153148965952
1.07 -0.01748351076390489 0.3711289072828476 -0.0996883529681288 0.12317473644934301 0.18369017652890637 0.11494286993384435 -0.047619883075136336 -0.3415547404150905
 0.012722175025699193 0.022675087917750417
 -0.09972867109568911 0.12282332628569145 -0.6338048117875814 0.11506554385946831 -0.00989939491492878 -0.03706527870672434 -0.012464300140837315 0.026197774895678833
 0.0001564992223850075 -0.0021806883147731703
 0.18322218394779954 0.11505549361068068 -0.009899728322633654 -0.037065531623310284 -0.6710161006394281 0.06362076430159892 0.03762660309761922 0.012572594076986056
 -0.002986707455287391 0.00014926158075450387
 -0.04687670039242362 -0.3410687262692798 -0.012471795690337295 0.02619005502705688 0.03761695981283597 0.012584192047940233 0.2739271266302382 0.017285775112757314
 0.004958328057871761 0.00807312756622019
 0.012648835879741098 0.022664010042004287 0.00015790896890423867 -0.0021801766790329837 -0.0029862219258527186 0.00014724141738744093 0.004955519498042054 0.008074209023152779
 -0.6772850709323321 0.21843387056546887
1.08 -0.009572112640859498 0.38257610123366353 -0.08836954529139537 0.13467200728674772 0.1967675470580612 0.09502485488205231 -0.07654159317226637 -0.33321143616803656
 0.016623967729409606 0.022600874097563138
 -0.0884440028561452 0.13436532978245386 -0.6158498392368273 0.1358699358540851 -0.015422927462087064 -0.03669032604498323 -0.007953880028175847 0.02790089425396678
 -0.0003093469066631979 -0.002359414942196499
 0.19636024152920806 0.09519938155189339 -0.015419407540130851 -0.036692116105889724 -0.6622317325121216 0.08688379528519313 0.03893517106830128 0.005750284542874929
 -0.0031193201532016836 0.0008344764026447998
 -0.07580248067859836 -0.3329822677765707 -0.007970171345052162 0.027902343039976386 0.03894029902113212 0.005768043443777198 0.2722045326430055 0.0072160841177536855
 0.006471315945209462 0.007915769426139734
 0.016561523165821473 0.02258961007781087 -0.0003089587501408259 -0.002358735784662243 -0.0031183703187990085 0.0008341363905521502 0.0064712166775025785 0.007909164698579973
 -0.6553507159335875 0.247709123700037
1.09 0.0012197942318452892 0.39447790757042167 -0.07592401626067713 0.1450368903302766 0.20704970710144985 0.07398743538370653 -0.10397489931672801 -0.32222999151867676
 0.02079212554957735 0.02192459715742531
 -0.07607844834609952 0.144749477251896 -0.5968054633843295 0.15509951337520053 -0.020940712177639036 -0.03554494752434306 -0.0032268666208070135 0.028815829430972807
 -0.0008501320792662311 -0.002442427012306438
 0.20665806733248943 0.07423387724619263 -0.02093670735248844 -0.03553857077994386 -0.6523837837853699 0.10988256469060231 0.03892268838090174 -0.001087288264302184
 -0.0030903308219934387 0.0015866372548491248
 -0.10325423500811778 -0.322259148832017 -0.0032402057104324615 0.02883031146183085 0.03895153810908189 -0.0010726500287914515 0.2700417395403951 -0.0023610257179892367
 0.0080656200851812 0.007505005032090045
 0.020725669817121085 0.021934349473921717 -0.0008495836834906521 -0.0024421764269510265 -0.003090655499529716 0.0015861664169951036 0.00806165278476791 0.007497810586393484
 -0.6314546432608069 0.27583433702765614
1.1 0.015052882882336666 0.40621645604812573 -0.06253731780136226 0.15423126897843767 0.2145736633124142 0.052303622978400605 -0.1295840908933072 -0.3089312375730111
 0.025119408697648716 0.020590220827270498
 -0.06272564016299159 0.15400837445906965 -0.5767600600426429 0.17263634003200087 -0.026379018249185184 -0.03363935659240868 0.0015843766927188061 0.028931979403228506
 -0.0014468842407916185 -0.002405962778121543
 0.2142706521424433 0.052659554807698586 -0.026364045978409398 -0.033643767130058615 -0.6413179208195687 0.1325505653917306 0.037675434212438054 -0.0076726861034480945
 -0.002879845903491072 0.0023649345489102475
 -0.1290235494724974 -0.30905101108482963 0.001581443437298739 0.02894662122382312 0.03769770214576589 -0.0076854924567705575 0.2674247832529092 -0.011512335989948847
 0.00969276556140125 0.006815460195687665
 0.025056288924514586 0.020611588405531293 -0.0014460379566045537 -0.0024055875281781642 -0.002879102769343073 0.002365046639637284 0.009684902050607585 0.00681081159922246
 -0.6055512945570094 0.3024958301126193
1.11 0.03198653866184245 0.41701951909347057 -0.04827009922765673 0.16227095817605333 0.21953770294963437 0.030423711145558426 -0.15321222299751872 -0.2935929371577887
 0.02949428598518508 0.018509381172547388
 -0.048489920805947245 0.16211080205148928 -0.5561412066686867 0.1882798453790177 -0.031654991337402565 -0.030993644700428556 0.006349567993976746 0.02824539140149849
 -0.0020741674015044872 -0.0022252851726166935
 0.21939561441445626 0.030802614048861553 -0.03165103956959613 -0.031006334354175547 -0.6292643682770687 0.15476105447097457 0.035306670570770096 -0.013803852524471086
 -0.002471398175257399 0.0031254578620893837
 -0.1527249511067314 -0.29381685746750635 0.006349569493819042 0.028258911226149735 0.035315655505315804 -0.0138140717249109 0.2644570739245107 -0.020079423743742497
 0.011296935310804503 0.005822823745810239
 0.029449678153330928 0.018547315713107866 -0.002074031968331513 -0.0022255389877770936 -0.002470581211465199 0.003125565367046225 0.011292211635284486 0.005820204987642262
 -0.5777402822805151 0.32760240583480377
1.12 0.05187022900514837 0.42639534677053326 -0.033218682776769204 0.1690600323473446 0.2221128766956305 0.008669682865909425 -0.17470988258276526 -0.27664872719349776
 0.03381918843828771 0.015651778559137467
 -0.03344142414769535 0.16894508656384824 -0.5351216669063051 0.20201786137184444 -0.036665304155131466 -0.027608982547887188 0.01092685287157227 0.02677497670765638
 -0.002698760162663303 -0.0018840904542037147
 0.2220690850865785 0.008981006853061399 -0.036674690344887725 -0.027616605032476687 -0.6160011488215136 0.1763093947466051 0.03195819185558597 -0.01928157256088464
 -0.0018642343486682108 0.003818361608458903
 -0.1742686856521355 -0.27685697838542783 0.010927088987625377 0.02678186835813694 0.031958332619153165 -0.01927848349427838 0.2613350893515281 -0.02806035701301089
 0.012833187955835386 0.0045205579967093085
 0.033783564953997876 0.015699707729928992 -0.002698648398223407 -0.0018847008146831202 -0.001864507441722962 0.0038173539464132628 0.012830919960263093 0.0045210429432363955
 -0.548150529155553 0.35069139256844994
1.13 0.07447539359660313 0.4335955483735796 -0.01750931438345403 0.1746083933815815 0.22261055496599358 -0.012764694715591503 -0.1940294792882524 -0.2583837642947843
 0.037941557883489296 0.01202880869805756
 -0.0176943051412041 0.17446741284570305 -0.5137647470510562 0.21370054171170313 -0.04132997213158322 -0.02350694350134065 0.015183197374968187 0.02456360601666424
 -0.003277196195719907 -0.0013765147114074903
 0.22249513292848697 -0.012504055333768496 -0.04133434973836757 -0.02350988016589808 -0.6016292952915836 0.19712848356456306 0.027804565601628754 -0.02395844757211192
 -0.001074943903535476 0.0043892313745598965
 -0.19359886714433566 -0.25860524208740837 0.015181374304185254 0.024579763823665838 0.027821939383048208 -0.02395696076820892 0.2582426952595911 -0.03566597403604879
 0.014238486603834376 0.002923227147246159
 0.03790633902665243 0.012062285139319938 -0.003277622723209596 -0.0013764621850978073 -0.00107463824105718 0.004389279922197005 0.01423486806206305 0.0029164347075791132
 -0.5167205045443131 0.37166906983081943
1.14 0.09941292036498861 0.4380212078506086 -0.0011312127016740847 0.1788761579004729 0.2211047632526204 -0.033699151452114134 -0.21112857197210344 -0.23913001545766216
 0.04173785593982556 0.007600525861986136
 -0.001354905334043359 0.17882607607850023 -0.49249236858177237 0.22335574950015935 -0.045562490160629354 -0.018726639573291258 0.019011003283699757 0.021708071113083174
 -0.0037697933230114115 -0.0007027397868871865
 0.22104567798863328 -0.03342038487056619 -0.045555542598785165 -0.018720604626123544 -0.5862268864675272 0.21705330605026127 0.02306496604505482 -0.02774469106894818
 -0.00012678648687640558 0.004794259753007043
 -0.21081908924720677 -0.23941427538030047 0.019015271838693136 0.021715767605282724 0.02307937225056174 -0.02775501123330501 0.2550941767049145 -0.04292551035561393
 0.015461830336076164 0.0010239141826845863
 0.04169046697413767 0.007631924232763504 -0.003767400871220703 -0.0007010329411677742 -0.00012545699217700679 0.0047918099996378805 0.01544687762293299 0.001016906378246305
 -0.4837814746715216 0.3902850677489596
1.15 0.12608490913388293 0.43918277132055494 0.01582065415531457 0.18197165795191664 0.2179757348100438 -0.05409483413201161 -0.22623604614385967 -0.21932233981781069
 0.0451032024902404 0.0024029877039844806
 0.015631776969031612 0.1818815992148587 -0.47158416332202924 0.2310311578809814 -0.049285068176050745 -0.01327766728644498 0.022329552166692926 0.018283057453275388
 -0.004131744761834761 0.00012589657783749637
 0.21791508167869342 -0.05383104877999796 -0.04928567366470678 -0.013282453815306764 -0.5698752381838863 0.2360825656443181 0.017922719663106604 -0.030635825091465254
 0.0009458319418069699 0.004996297357098275
 -0.22593842494298128 -0.21952291009590402 0.022334960038955076 0.01829221320401564 0.017929480643143765 -0.030644621942845517 0.2519029731407612 -0.05005982540669708
 0.016453047967140224 -0.0011526196643399027
 0.04504506243013315 0.002445985923567593 -0.004129045255997845 0.0001256806540668113 0.0009454543412721444 0.004992796966512396 0.016436486629709847 -0.0011530181628023198
 -0.4495130184498296 0.4064048346574223
1.16 0.1539021380936957 0.4366841758779496 0.03343085028384953 0.18374795832810997 0.2132528087396873 -0.0739900106755961 -0.2392753022484721 -0.19903967373165296
 0.04785687729548424 -0.003535620999098103
 0.03325128580472083 0.18371109364422933 -0.451249578744871 0.23680697330303904 -0.052408405523409064 -0.007178692971911952 0.0250585691816489 0.014381842070281453
 -0.004316592595819854 0.0010861522755194217
 0.21327277315020454 -0.07372222973781496 -0.05240989744609752 -0.00719166926955552 -0.5527272601367542 0.2543311550985184 0.012533771652439013 -0.03260309512721169
 0.0020980117601528806 0.0049567170421490545
 -0.23905191650488836 -0.19926922175479606 0.025064088909644226 0.014388847289270087 0.012532548074011706 -0.03261198935301793 0.24841342897195282 -0.05715656912965965
 0.01714231679149606 -0.003575783139579356
 0.047822891709708326 -0.0034693345457992497 -0.004315137728575199 0.0010838797229595948 0.0020960833790263406 0.004954595018354144 0.01713091573772714 -0.003568035415181419
 -0.41402143571695293 0.42005456355707743
1.17 0.18205460248492783 0.4304142519316524 0.051737685483973984 0.18412179075479426 0.2071890459084031 -0.0933522959691742 -0.2505764995553172 -0.1785558967300815
 0.04989962395534076 -0.010121366553266793
 0.05154324063154 0.18406008230530632 -0.431978093621674 0.2408689321437033 -0.05480791364114711 -0.0004826405397055835 0.027140939425115435 0.010088861210812306
 -0.004282949506103162 0.002139668298838643
 0.20719031941950677 -0.09309984778672743 -0.054815231716906485 -0.0004894789960365456 -0.5345704000455259 0.27146813204120285 0.007054192043127818 -0.03368669372134843
 0.003273276676548652 0.00465678050791395
 -0.2503097564048938 -0.17877618205820273 0.02714699610071189 0.010097121081875583 0.007057714623875779 -0.03369161163692076 0.24464387423223743 -0.0636820157882798
 0.017489282912124534 -0.00619456217714228
 0.04988712242450671 -0.01005726048381875 -0.00428398508694583 0.0021386137274792957 0.0032723551295018214 0.004657153262576404 0.017486394058324195 -0.006191585995922237
 -0.37758665897522664 0.43087108826447645
1.18 0.20996856833065916 0.420267306682331 0.07066247666200655 0.18291866439709 0.19970330818470594 -0.11225897913335987 -0.26016882216231907 -0.15808077795802722
 0.05115114559385204 -0.017300464001067675
 0.07047159296168268 0.18289313553296305 -0.4137838358119954 0.24344869298429828 -0.05636576033486526 0.006759730799492501 0.02853193184982736 0.005525457618178006
 -0.0040022719182399935 0.0032420707692213785
 0.1997199948924983 -0.11203755625953075 -0.05636937865875065 0.006759189705839724 -0.515611887676165 0.28740284811207545 0.0016194737719776213 -0.03392330635128373
 0.004419592694486416 0.004088144724744985
 -0.2599369052287945 -0.1583325176909498 0.028537758344019667 0.005533721691844423 0.0016273777519710264 -0.03392934614939788 0.24085419403287842 -0.0701089299141216
 0.017473081953305467 -0.008973107476199864
 0.05113246951255381 -0.017232903235166533 -0.004001938983227187 0.0032403851612901264 0.00441738221028832 0.004087711941215229 0.017463978093105945 -0.008969035501811839
 -0.3401991306083196 0.43875361146153236
1.19 0.2369077479419309 0.4064191841378379 0.09018564979449142 0.17995688771187132 0.19082067566488717 -0.13079068274881317 -0.26835195308718957 -0.13765307460635562
 0.05148834466832219 -0.024987915878281385
 0.08994469919700802 0.1799153986783672 -0.39682203530043114 0.24489498983586985 -0.05693691266742664 0.014458176508314144 0.029195041417146014 0.0007842529240274692
 -0.003446750984080546 0.004334137629550136
 0.19080016942495415 -0.13050608016668877 -0.05693398400081593 0.014458229318666988 -0.49594550325387077 0.3021070961542835 -0.0036698962287770856 -0.03336897552831232
 0.005475301815546236 0.0032488578019537746
 -0.26805488478955597 -0.1378802374991402 0.029200425301656372 0.000788541406630555 -0.0036655917803803386 -0.033377430411832415 0.23701912340380696 -0.07619808395374027
 0.01704376114482702 -0.01186140600091531
 0.05144559652474608 -0.024908296136902052 -0.003444598670062993 0.00433189241569313 0.005472628699506273 0.0032469851002288022 0.017028727631900966 -0.01185583974777747
 -0.3022110824504984 0.44355896196709377
1.2 0.2623549050177549 0.3891687703081841 0.11015546220036965 0.17496240516944436 0.18035045419028525 -0.1488033868609801 -0.2751483907131398 -0.11730837522241976
 0.05077573889711566 -0.033114817395380615
 0.10990764751984813 0.1749787890087514 -0.38112612199813944 0.24533506329518787 -0.056377204294908605 0.02247987457713359 0.029111634610382638 -0.004026702819498982
 -0.002601396187824571 0.0053526305760478055
 0.18041919959680666 -0.14852552612539963 -0.056380639263978266 0.022478159291892834 -0.4756446073879228 0.3154343943995405 -0.008718397148007054 -0.0320782706539009
 0.006381728762952396 0.0021469411550439016
 -0.2748980316044808 -0.117567185209847 0.029116014239477295 -0.0040253043807813756 -0.008718607891980763 -0.03208162346202862 0.2329958215839426 -0.08226128398611882
 0.016167868683759738 -0.014815193564359981
 0.05074025396272759 -0.03302241402788823 -0.0025989111667117214 0.005348862537489076 0.006376974719716589 0.002144304842346163 0.01615096811709225 -0.014804652391550972
 -0.26379218939496357 0.4448970046098029
1.21 0.285621365574622 0.36870427108289117 0.13043890532425903 0.16780385604420603 0.1683138339806941 -0.16625256973138852 -0.2807639437052918 -0.09711212097060601
 0.04885044854539645 -0.041525784292315654
 0.13018492602585097 0.1678093450003094 -0.3670481986105561 0.24507453851441513 -0.054580506963982596 0.030641153778699613 0.028274986988735835 -0.008796729025544917
 -0.0014655472996919204 0.006215063172079016
 0.16842685218086914 -0.16595420132562835 -0.05459800670930446 0.030631331518041083 -0.4547871739751722 0.3274081053838712 -0.01343769055382928 -0.030107531663997246
 0.007065811724119423 0.0008051178074324095
 -0.28056511204547996 -0.0973764297655767 0.028286375311642492 -0.00879717169400376 -0.01344567121586278 -0.03011135729895681 0.22849285334378197 -0.08805504263378718
 0.014793207423584153 -0.01775049214357257
 0.04885434144161649 -0.04142374225714494 -0.0014669711054993856 0.00621294649105995 0.007062698702457238 0.0008049028198430167 0.014787125318328237 -0.017736224104741162
 -0.2254000702383919 0.44271954825917054
1.22 0.3064430226953383 0.34551539284213084 0.15077320278717044 0.15816935407714303 0.15462515621712392 -0.1830393021926899 -0.2854347381628736 -0.07698137861997367
 0.04569422540728418 -0.050080130269543374
 0.15051117421665866 0.15821325648763127 -0.35439623425689354 0.24444973898640493 -0.05147802952138485 0.03874382883108445 0.0266995916537442 -0.013427045312771328
 -6.958801411004817e-05 0.006847469949276489
 0.15478638602910683 -0.1827955446221965 -0.051501845849989174 0.0387485520639366 -0.4335760355772858 0.33790614573442146 -0.017790265741897463 -0.027536141777073184
 0.007478088874185401 -0.0007310286970094638
 -0.2852118556037937 -0.07726141851491194 0.026706355484111884 -0.013426961699244752 -0.01778944066089413 -0.027531270830590763 0.22366345720646463 -0.09359766534818165
 0.012929536144890593 -0.020607415268801832
 0.04573595949369102 -0.04996060728285613 -7.393655531789934e-05 0.006846021822336818 0.0074743654836010535 -0.0007270910961546553 0.01293527079161891 -0.020592162499223063
 -0.18737435672726252 0.4370628271156306
1.23 0.324407733976155 0.31995632714739297 0.17081097955958266 0.1459818446415078 0.13934046261876504 -0.198921788064818 -0.28910174573220676 -0.056886338879552294
 0.04122882956148401 -0.05858620850225645
 0.17053278219313697 0.14605461009028262 -0.343156713262367 0.24385416648209352 -0.047068155349208794 0.046506698039277816 0.02439804409301064 -0.017788908311471403
 0.001537482554579608 0.007172682361537965
 0.13948013731183365 -0.19869038998453908 -0.04707981556098042 0.04652131118546069 -0.4121943556149091 0.34676125101198824 -0.021674599292525756 -0.024412936846488355
 0.007562143793980221 -0.002398888774428624
 -0.2889359809536933 -0.05719066050476003 0.024408545145900858 -0.01779390800310438 -0.021674176057708293 -0.02441758930831709 0.2186000728812913 -0.09860361923440479
 0.010568264782554732 -0.02329794679687195
 0.04128201939386541 -0.058477820340380925 0.0015342934327731046 0.007172774763954018 0.007560532259234339 -0.002394542025984358 0.010571739683258212 -0.023283527728304398
 -0.15013558922904738 0.4276652660940541
1.24 0.33928766387318554 0.29251815521341284 0.19019851906021393 0.13107916169989856 0.12232611806920722 -0.21382647533734975 -0.2918900241711595 -0.036759214060061315
 0.03539120498967168 -0.06688545930204084
 0.1899644306109481 0.13120251800575303 -0.3330100052439897 0.24348025785317104 -0.04135028636105742 0.05374734495213583 0.0214126305451961 -0.021790257165692883
 0.0032934747508864175 0.007127755373596251
 0.12249041754632893 -0.21358827207757575 -0.04135363076929639 0.05374676758877168 -0.390883528134864 0.3540669397019499 -0.025063283742822528 -0.02081499043844834
 0.007283741418515559 -0.004135783766651458
 -0.2917328720937913 -0.03708292417434009 0.021418738136768155 -0.02179021375355386 -0.025064118755107865 -0.020819889415496062 0.21349288392733035 -0.10317180938203001
 0.0077061988711854155 -0.025743330625338404
 0.03544388327970414 -0.0668066006287296 0.0032926362484072677 0.007127588527844109 0.007283285742790253 -0.004135103610441093 0.007703203782493657 -0.025738528175359474
 -0.11416746560246324 0.4146052719857496
1.25 0.35073713260209277 0.26364810573051833 0.2085248759537871 0.11342388933898687 0.10361710682936576 -0.22743798500256265 -0.2937883731670066 -0.016577262367473294
 0.028143595740052804 -0.07480039877787133
 0.20831475593768414 0.11356057319911571 -0.323851366069528 0.2435932432131523 -0.034396303651148145 0.06016084891388418 0.017790139624595434 -0.025308345483308042
 0.005112367286967538 0.006659541574394117
 0.10377939267829825 -0.22722255388619222 -0.034397038509632195 0.06015941230278388 -0.3698802133010205 0.3598085725949934 -0.027896504302129414 -0.016805092187756377
 0.006616527486685288 -0.005864349179675667
 -0.293658512403306 -0.016893363319138367 0.01779658678363812 -0.025308448420302956 -0.027897773512875722 -0.016811525130392278 0.20829451005850885 -0.10734250503631222
 0.004357505381546267 -0.027859814016790784
 0.02818636523930613 -0.07471191923451168 0.005110852336024168 0.006657047836918274 0.0066139901548499325 -0.00586277639662003 0.004349720682340053 -0.027847673142974504
 -0.07994569237655229 0.3980156363195423
1.26 0.35878369811880273 0.23388378387400371 0.22537422185161923 0.09297621140758659 0.08324219205463361 -0.2396305868434093 -0.2948369881666996 0.003795599460089472
 0.019392044134478793 -0.0821210546223154
 0.22515345759890645 0.09310883855730656 -0.31542121446875265 0.24421719029057068 -0.026336998239259744 0.06554880891663876 0.013595143640657156 -0.028259339074365068
 0.0068985165435642495 0.005729003174028692
 0.08342143768170167 -0.2394379714328636 -0.02634527920864193 0.06555647346735759 -0.3493055842902523 0.3643417243082319 -0.030157878453926406 -0.012456803783372793
 0.005546755219639901 -0.0075065921221615095
 -0.29468083011450985 0.0035031623267972566 0.013600195042492338 -0.028259952845067306 -0.030155311205292225 -0.012458156107265762 0.20292177936945408 -0.11122759470758717
 0.0005274354223196343 -0.02955179461045693
 0.01945438202702948 -0.08201910450937923 0.0068950656896424045 0.00572787265034189 0.00554447077621014 -0.007502235036168007 0.0005275531017412317 -0.02953807538647381
 -0.04781847713152634 0.37793298854256735
1.27 0.3633128337484357 0.20370677831979117 0.24021200494572972 0.0698327568137173 0.06125445631046103 -0.25001028236588513 -0.2949469543985517 0.024460283631236365
 0.009184349285505032 -0.08856661611581593
 0.24000802242210717 0.0699798359132743 -0.3074421080482055 0.245453730441861 -0.01736782708117506 0.06965358047228007 0.008912573492132994 -0.030549498305147676
 0.008530426745289999 0.004331133056321282
 0.06145583875883114 -0.2498471591041478 -0.017379370073586236 0.06966474032925901 -0.32914302547426155 0.36752397775446116 -0.03179355368269628 -0.007831585639637331
 0.00408262638722066 -0.008961308064345384
 -0.2948433508237028 0.02414746683671993 0.008921297858123813 -0.030553017878868084 -0.0317924471917629 -0.007835149955319906 0.1973918468066565 -0.11452705079496431
 -0.003708550711554032 -0.0307176656562195