! AWR Design Environment (19377) Sat Dec 27 02:21:50 2025
! Document = 'EM_Extract_4_way'
! nPorts: 5, nXvals: 401
!
! Created with skrf 1.8.0 (http://scikit-rf.org).
# GHz S RI R 50.0 
!freq ReS11 ImS11 ReS12 ImS12 ReS13 ImS13
! ReS14 ImS14 ReS15 ImS15
! ReS21 ImS21 ReS22 ImS22 ReS23 ImS23
! ReS24 ImS24 ReS25 ImS25
! ReS31 ImS31 ReS32 ImS32 ReS33 ImS33
! ReS34 ImS34 ReS35 ImS35
! ReS41 ImS41 ReS42 ImS42 ReS43 ImS43
! ReS44 ImS44 ReS45 ImS45
! ReS51 ImS51 ReS52 ImS52 ReS53 ImS53
! ReS54 ImS54 ReS55 ImS55
!
1.0 -0.05549828986007359 0.1926205541059044 -0.14884877964009388 0.018614114823401084 0.3314105866457372 0.09878317028025396 -0.00897055139512837 0.020951828255437076
 0.0492439899619664 -0.029933474042036935
 -0.14841767185959673 0.018494487162488173 -0.7248664430219505 -0.06334496196902549 -0.013507657127943882 -0.04903080589598453 0.0018336381785917593 4.124715028703529e-05
 -0.00371146949039567 -0.002779567881008533
 0.33055404212545497 0.09862738594087198 -0.013521553040030493 -0.049050693121956555 -0.1556909832499018 0.05196318879160076 -0.003833703876230038 -0.0017884649463273362
 0.005259935167672935 0.009313866962535736
 -0.008955970038959347 0.020890173797481416 0.0018340264005429208 4.133280974178861e-05 -0.0038324358295427526 -0.0017888133610472349 -0.7990348141126319 -0.10333877730573444
 -0.0010900617490095187 0.0005632573722254826
 0.04909563840386846 -0.02983345813278016 -0.003711713279015451 -0.0027780728057849643 0.005257988204403569 0.009307590109315474 -0.001089478501782825 0.0005634137503776198
 -0.20922161821400906 -0.4503745213017129
1.01 -0.082739772298417 0.19251110665729426 -0.1485236151465371 0.03734688625952197 0.34152546850172105 0.059163327755230866 -0.0065763328496794065 0.023375423114262387
 0.047185331461866126 -0.03877812368875595
 -0.1481567402314436 0.03719726091501172 -0.7159056781485433 -0.03486553022460021 -0.021022070989656232 -0.047633818435822844 0.0019376105153431646 -0.0003663497136979608
 -0.004523793843972776 -0.0020311962735106996
 0.34057332719789113 0.05913254501795562 -0.021017826541337374 -0.04762654355599984 -0.14749509236252614 0.07104203127911535 -0.004343755933010761 -0.0010218633756992237
 0.007492422006215809 0.008356273159836768
 -0.006565734110047938 0.023310875789882828 0.0019373627461698416 -0.0003664307346194298 -0.004344034744284575 -0.0010215535490780484 -0.7969383996075922 -0.06891828538576937
 -0.0010928123154564714 0.0008440598078486833
 0.04707959796077898 -0.03863425120820476 -0.004521834374892896 -0.0020322649062888645 0.007488742855321536 0.008357891596554114 -0.0010929977362305603 0.000843466393755512
 -0.25099811585803716 -0.4277632293152473
1.02 -0.11106185423200071 0.20097084331559076 -0.14548425312196744 0.05593786017485805 0.3452343296708549 0.018862512311095116 -0.003629531300750854 0.02555557706602212
 0.043460735910313714 -0.047635909267750305
 -0.14510115705912302 0.05572731732748182 -0.7055834672957368 -0.007132110502188351 -0.02826218417861883 -0.04501201203855188 0.0019491839954380878 -0.000821440823746795
 -0.005177696355878958 -0.0010492253669327136
 0.3442817770112739 0.019021093053866366 -0.02825332701691391 -0.045020911196003176 -0.1374086031097111 0.08844631134362246 -0.0046908829387268085 -0.0001079077014707712
 0.009528009521311982 0.006826773795668894
 -0.0036463193575860748 0.025480052311880937 0.0019496899576272226 -0.0008200965752766535 -0.0046904618389228495 -0.00011000231748373472 -0.7929681376405664 -0.03440061373676065
 -0.0010341502174662188 0.0011567483029983276
 0.04336223383944489 -0.047454651061663994 -0.005175590198364526 -0.0010508930146644012 0.00952329593062027 0.006825681535032292 -0.0010335028445427506 0.0011566987935025172
 -0.290363339251443 -0.4010239482361121
1.03 -0.13798718341922503 0.21823894826534285 -0.13975891970192095 0.07375590325766704 0.34273464470729453 -0.02062004233931847 -0.0002312617733623134 0.02733505529927331
 0.03796150565863532 -0.056101774851800464
 -0.13936170057603525 0.07344573723459401 -0.6936680689101903 0.019736496661874454 -0.03495602081318435 -0.041281996443359635 0.0018523250699179652 -0.0012941834399854233
 -0.005596332128630452 0.00012957066999400352
 0.34173720297534743 -0.020233645401485062 -0.03494606282058349 -0.04130265849150951 -0.12592705480777192 0.10413964243101433 -0.004827360136460978 0.0008986699838780906
 0.011194037753627664 0.004767050423996868
 -0.00022811622609270575 0.02724611139119177 0.0018512657802807822 -0.0012952411231248312 -0.004825030666420143 0.0009034268640211435 -0.787038337920799 0.0002529805759231622
 -0.0008970999837036224 0.001486397158587212
 0.03789755148494159 -0.05590428103662803 -0.005597467156410576 0.0001279726068976741 0.011194764436685616 0.004766074275960925 -0.0008987807016391586 0.0014860148943317353
 -0.32686140970509425 -0.37042914536655974
1.04 -0.16100029204995825 0.244011849954215 -0.13169251824997438 0.09032977061840747 0.33447942482475235 -0.05802874635620364 0.003629516346193146 0.028649893728007525
 0.03079478129296261 -0.06378044711177414
 -0.13138538731282948 0.08990794243672301 -0.6803542730014286 0.04559245867342181 -0.0409445654884827 -0.03665144258826597 0.001639827125875223 -0.0017654970990823484
 -0.0057293813400072155 0.0014397381213112235
 0.33370892799097895 -0.05743831275374604 -0.0409583967545737 -0.03668118375050231 -0.11335643797908289 0.11809769534813516 -0.004734477385365913 0.0019615466348727895
 0.012356565788947681 0.00229062628139099
 0.003583356412255226 0.028550822337570628 0.0016390796766815562 -0.0017644625478712283 -0.004729060497042715 0.001960246077388466 -0.7790074832141101 0.03468906623116989
 -0.0006754153612160335 0.0018168359824697405
 0.030761680896040755 -0.06351416038755951 -0.005726636823556426 0.001438290839979139 0.01234374323340977 0.0022868344734689175 -0.0006755338802229673 0.0018168238217120658
 -0.3600491110552857 -0.33631628251499107
1.05 -0.17789399735103603 0.2771139998508034 -0.1216647253912555 0.10530427208995152 0.3215134534994555 -0.09226562717014274 0.0078111643495808415 0.029355401557493666
 0.02212282592520834 -0.07023155476299281
 -0.12153162660289568 0.10486360363846448 -0.6656497815933236 0.07036170381790927 -0.046159120889085005 -0.03132555685295846 0.001307866168784104 -0.002200970489240271
 -0.0055332905288338055 0.0028048366352420983
 0.3209452859459702 -0.09159783139275815 -0.046172446603612666 -0.03132924163654225 -0.10015231141341063 0.13043973320871527 -0.004390466910234893 0.003009862278915115
 0.012893137080874414 -0.0004574164267537814
 0.007729852947062823 0.029285166193512315 0.0013082278539467756 -0.002199250151394154 -0.004388854850954534 0.0030052462370339186 -0.7689579600708398 0.06880977550147822
 -0.0003600144628077208 0.002124222868552032
 0.02217369497104202 -0.06997706540589872 -0.005530043966082992 0.002802013052865386 0.01288155500152228 -0.00045379482878936915 -0.0003593266955857027 0.0021239738141233967
 -0.3896031120945602 -0.29900373819108084
1.06 -0.18667861121589183 0.3158164884893817 -0.1102266523390537 0.11851715172420597 0.30483919619284294 -0.12272786898960529 0.012193687293455288 0.029452846778517852
 0.012282617757665511 -0.07518892540360433
 -0.11018273679848203 0.11809826646455673 -0.6498863127234201 0.09384195990039125 -0.050558948508804116 -0.02544925899295838 0.0008659770200704828 -0.0025733918332369915
 -0.004996382762768967 0.004136240528417948
 0.30446256408219835 -0.1220247261869462 -0.050570161093209255 -0.02545443499940861 -0.08644627324590332 0.1413154177970304 -0.0038113511088666853 0.003984371044314048
 0.012756164001881313 -0.003295945470334552
 0.012110287987894552 0.029406157619639196 0.0008664966214350346 -0.0025724313272586755 -0.0038106765293282486 0.003981260784157447 -0.7573303042687105 0.10229021203706402
 4.829328109013164e-05 0.002387114001653384
 0.012417187281513569 -0.07498921665685053 -0.004997770616097335 0.004132307016669931 0.012752566307608942 -0.0032867039499147968 4.755713211508442e-05 0.0023872541557594987
 -0.41509257418311307 -0.2591651264709316
1.07 -0.18623370595005936 0.35767447334544866 -0.09773870795521701 0.12986978782138028 0.2856410332226198 -0.14914728215607054 0.016658938948943512 0.028883097319842083
 0.0016315159008249655 -0.07846565201305997
 -0.0977927394819852 0.1295110138353452 -0.6327699889188307 0.11597052669129933 -0.05413985742607564 -0.019188904774578203 0.0003268644497175147 -0.0028521090101333874
 -0.004131745533997118 0.005342532815866038
 0.2854747561147372 -0.1484152006407342 -0.05413934608951105 -0.019199834743623256 -0.07239228061487513 0.1508360147659688 -0.003015535109182696 0.004827037442229581
 0.01195231885100466 -0.006043545180094917
 0.01658742506580787 0.028857807578981935 0.0003264856682423643 -0.002851674787681782 -0.00301344068574715 0.004826866011632385 -0.7435950748118733 0.1352233247782365
 0.0005422894036252116 0.002578852701982023
 0.001806605533474977 -0.07833550259397963 -0.004135148328747608 0.005339501374345468 0.011954066970286992 -0.006037062992160763 0.0005403236654701664 0.0025795848895150543
 -0.4365407005965955 -0.2172589424310362
1.08 -0.17620373564434713 0.4002392937318331 -0.08472649316529139 0.13953926091514535 0.2650216212070818 -0.17156360644863283 0.021121683987393825 0.02765998405348448
 -0.009454234664006534 -0.07999097251901495
 -0.08481279096967974 0.13923128315687527 -0.6147740971167029 0.13669171675837752 -0.05696852550723296 -0.012688527724695569 -0.0002892553766274882 -0.0030167922431900158
 -0.0029804301851488915 0.006345120845361032
 0.26498551761441497 -0.17086699950575032 -0.05696645418639103 -0.012709564708766365 -0.05794437287049466 0.15931109664562657 -0.0020373292030110386 0.005495802713770429
 0.010536599777405937 -0.008537625244656856
 0.02105367983183294 0.02764986635406997 -0.0002893966550630623 -0.00301653842474256 -0.0020348044978112487 0.005495971115712514 -0.7279913828335197 0.16743722370735895
 0.0011091538957789559 0.0026783262036688712
 -0.009307315369572852 -0.07989298232093732 -0.002981690892061138 0.006343879772057148 0.010534219119420563 -0.00853781594625783 0.0011083651727218527 0.002678637525223503
 -0.45368230803854775 -0.1737457967286575
1.09 -0.15685849814311795 0.44121497037004276 -0.07138545108285796 0.14770971896659685 0.24386936466884446 -0.19038323237667398 0.025472515799223158 0.025793807679969215
 -0.020676285259535084 -0.07975111987259333
 -0.07154936704720562 0.14742680645600376 -0.595649939825132 0.15588134314787577 -0.05911155462765727 -0.006015013703410921 -0.000956608897771241 -0.0030476807097652805
 -0.0015938386623632359 0.007077835235787326
 0.24402421626593981 -0.18973670762725023 -0.05912315305090293 -0.006034420846288223 -0.04301567383739185 0.16672456591287685 -0.0009215082742872885 0.00595468753564386
 0.008600076739107374 -0.010650449667188689
 0.02540367101739079 0.02581494059632495 -0.0009564616637814262 -0.0030483921335702725 -0.0009203239505335829 0.005954696259741545 -0.7107069803063383 0.19894775924333985
 0.001732214642612868 0.0026655858169319447
 -0.020492015676050867 -0.07968062972006518 -0.0015955372953096983 0.007075434371761252 0.008595747298227832 -0.010645173555325644 0.0017308928800262601 0.0026646629406776056
 -0.46646922931592344 -0.1290381187769532
1.1 -0.129105894932642 0.47867545818054047 -0.0579327280418218 0.15463378191858337 0.22280030903032952 -0.20609445188976533 0.02965728219163963 0.023302870431810098
 -0.03170399420439922 -0.07780530461979816
 -0.058125432136113875 0.15441770476578787 -0.5754629623132966 0.17338839742007328 -0.060635479526821676 0.000832335042885337 -0.0016513945655765585 -0.0029322759470317115
 -3.83417099015774e-05 0.0074912686264100295
 0.22307294829747068 -0.20560142261099734 -0.060658304109379765 0.0008174724417406771 -0.027451708182556864 0.17296410455384562 0.00029194321580992334 0.006181263978095636
 0.006252008616765575 -0.012278571011609288
 0.02956269978260632 0.023324600825777277 -0.0016487480557387303 -0.002930677094488824 0.00029035194218461407 0.006174076292401023 -0.6911591891723915 0.22956379539964814
 0.0023902504049781825 0.0025187591743306465
 -0.03151315211524799 -0.07777367384414781 -4.140219089366934e-05 0.007488334761304064 0.006249213190827316 -0.012268209268519795 0.0023913371209027677 0.002519693633526649
 -0.474850158519779 -0.08357377079707365
1.11 -0.09412152832711101 0.5108715770664911 -0.044383868450091735 0.16059865951574018 0.20220973292786315 -0.21939103517359673 0.03352278987912185 0.02024836640435342
 -0.04225147518526919 -0.0742802814970278
 -0.044603242809223384 0.16044528537456285 -0.5546322844541838 0.18897259298598382 -0.061566478873338985 0.007883772641839978 -0.0023351347587732335 -0.0026615169877821586
 0.0016078795041639421 0.00755106268709856
 0.20259680175796396 -0.21906450581335374 -0.06160555765201149 0.00787747916609201 -0.011369404365830834 0.17778538060121896 0.001541303465090981 0.006154860134487189
 0.003626357913177234 -0.013354684495799548
 0.03347867442397843 0.02030538003644712 -0.002335059658429546 -0.002663116770971669 0.0015400422007798384 0.006153306764744718 -0.6696528879334588 0.2591499461931446
 0.003056738547636404 0.0022330807332140265
 -0.04207696822709492 -0.0743473992348856 0.0016033168231788797 0.00755369715455713 0.003631159728012138 -0.013347635928847313 0.0030556392272857173 0.0022338486129087768
 -0.4790003397105162 -0.03785500424377446
1.12 -0.053460570248758346 0.5367758375691823 -0.03069615672818296 0.16575598548150317 0.18230955043920605 -0.23084710362451918 0.03708909298170161 0.01667143946804388
 -0.05210604392592481 -0.0693941090752135
 -0.03091530432410923 0.1656459035128473 -0.5333429311011798 0.20257599847200458 -0.0618660323635432 0.015147408482386557 -0.002980881743297177 -0.00223539352300929
 0.0032613325533686816 0.007245084628411503
 0.1826373414250172 -0.23058079169947895 -0.06189047061088394 0.015150905191009636 0.00508861738122799 0.1811082559068899 0.002784798165410782 0.005878845684651506
 0.000861876586069485 -0.013848151477389978
 0.0370531632458816 0.016712269277677196 -0.0029811808251869157 -0.0022350627948038333 0.0027846779966023876 0.005876206019700727 -0.6462067149817898 0.2874099295700329
 0.003700589650490904 0.001796054486762719
 -0.05196685739259268 -0.06946152904973672 0.0032589915706539054 0.007246696935736764 0.0008659469313748547 -0.013843428777010195 0.003699939882056274 0.0017978933239483478
 -0.4787187819147869 0.007624534388163782
1.13 -0.008691719497150072 0.5555801752638839 -0.01678943725942328 0.17027418775366393 0.16301908276049243 -0.2410163263111895 0.0402537801976437 0.012617095362413438
 -0.06110877598487152 -0.06327967488179595
 -0.016970034115711068 0.17013702876972636 -0.5116925864732529 0.21401439896375235 -0.06145791727134426 0.022636462962329688 -0.0035493811070151236 -0.0016580567597779153
 0.004839575000719012 0.006573417914549694
 0.16330486972113986 -0.2407297042143527 -0.061489631845281285 0.02263166883499844 0.021776697486751366 0.18294609130727302 0.003967764696138659 0.005356771706361256
 -0.0019140035299975533 -0.01376082925235229
 0.04021803379015524 0.01266211274832975 -0.0035498726791827204 -0.0016589027048781436 0.003967376605065611 0.005355201425232726 -0.6207616107740732 0.31406695780374255
 0.004287041080973756 0.0012123232739794736
 -0.061005292857323146 -0.06333889000209954 0.00484011301556781 0.00657668809697975 -0.0019145842161596618 -0.013759803282628677 0.004287661608128792 0.0012126926366893913
 -0.47410090272520194 0.05253548000821036
1.14 0.03854158570052185 0.5669948413333101 -0.0024111158852389092 0.17418781351682103 0.14411908742199153 -0.25028127964301694 0.04299763866298841 0.008137322093242434
 -0.06916497054104653 -0.05615520214255846
 -0.002628589255130753 0.17413740443271947 -0.4901516588030093 0.22329641115249893 -0.060295222030741454 0.030348899297412437 -0.004012735347211208 -0.0009448917465298522
 0.006270136714592396 0.0055682697408916786
 0.1444155350126754 -0.2500364642116982 -0.06030004989767849 0.030346780019859684 0.03857366857020156 0.18307090905225404 0.0050503314152964135 0.00460747460576975
 -0.0045877463077854674 -0.013130836454837022
 0.042960598952174064 0.008179565913291083 -0.004011346916113114 -0.000943946713074259 0.005049108726380019 0.004604451886450011 -0.5935833766611535 0.3390341904148187
 0.004789109266668173 0.00048780125254005034
 -0.06906555916228038 -0.05621555196660318 0.0062692148193192725 0.005567194859334277 -0.004587840588132741 -0.013127605127994258 0.004790069832899342 0.0004884951190095498
 -0.4653703951222034 0.09626932907971243
1.15 0.08686394800922072 0.5711982779204043 0.012550334019361864 0.17757875374759904 0.12542235922774728 -0.2589585082664162 0.04529608913676424 0.003281653861490444
 -0.07621536486766162 -0.048189012623967374
 0.012367693893805268 0.17748801690999758 -0.4690513553129521 0.23047498847613634 -0.05823311084464457 0.038244366914134874 -0.0043389987704932085 -0.00011237904255677919
 0.007483691119308362 0.004258581112097869
 0.1256747555703156 -0.25873670084441985 -0.058254083871537674 0.038246651213811135 0.05522193668185801 0.18152350161540742 0.005993555290005103 0.00365250480227577
 -0.007062958329230939 -0.012003166358450544
 0.04524814951681808 0.003318462402371226 -0.0043372145664567876 -0.00011188798703531586 0.005990336842876203 0.003648569627566171 -0.5647117162916295 0.3620970722352057
 0.005178382252767231 -0.0003642765860264644
 -0.07609941064741202 -0.04824348142136021 0.007481422988100678 0.004259377080758919 -0.007058886786600726 -0.011998246648648988 0.0051796909901868195 -0.000362738600271397
 -0.45279615879288343 0.1384632572221849
1.16 0.1351461169864825 0.5684564045652303 0.02835384921793727 0.18023232464669883 0.1065000428499837 -0.26702809987827464 0.04710662335140134 -0.0019560180991021747
 -0.08222066241387366 -0.03952648678483565
 0.028179345729040864 0.18019212467067963 -0.4486502004832873 0.23565358834624062 -0.05513883023225771 0.046236991716057343 -0.004500966243172521 0.0008189879263982896
 0.008423899500716913 0.0026943174221029944
 0.10680138693467736 -0.266901834218432 -0.055168390238785184 0.04624060036914824 0.07165118349441932 0.17816344728667186 0.006761662926048788 0.002510495342306135
 -0.009254771942162317 -0.010433980080097462
 0.04708228611325728 -0.001895609411244178 -0.004500340792472959 0.0008172536824818144 0.006757640943442982 0.002509948694230157 -0.534408387735665 0.3832343477249362
 0.005430818950877981 -0.001330237701835006
 -0.08212480929377941 -0.03961481442302094 0.00842141956797641 0.002697401509395815 -0.009248069965335415 -0.01043046135427779 0.005431136539353846 -0.0013299178662916089
 -0.43683197425431186 0.17887215935611422
1.17 0.18216264498641555 0.5590573375153364 0.04518776770218468 0.1819993708760634 0.08720882657616841 -0.27478915187281244 0.048384883641521596 -0.0075001394060522355
 -0.08715258654474739 -0.03036113022976892
 0.044999050998453256 0.1819330662003645 -0.42947928319376516 0.23905195338013757 -0.05090054663175723 0.054203846592668886 -0.004468857114768941 0.001815257731772675
 0.009035243603349227 0.0009345215863942185
 0.08745650855027406 -0.27458254515208974 -0.05091663853807069 0.05420533033742309 0.08723191147289042 0.17293104893780506 0.00731782760004687 0.0012167703926175757
 -0.011091442165095756 -0.008498874283212242
 0.04836469601659331 -0.007441111043420661 -0.00446925912929676 0.0018141879989153967 0.007316478794981002 0.0012172435926825222 -0.5026273064567481 0.4022926671538686
 0.005512881062670482 -0.002384971959735343
 -0.08707636103540983 -0.030462995590818956 0.009036378131150111 0.0009384983764898727 -0.011089148848119228 -0.008502019425084868 0.00551429197998278 -0.0023843666475069475
 -0.4175756107859442 0.21719844636441676
1.18 0.22716629675393826 0.5437401825924612 0.06307504125285229 0.18254634880869816 0.06715527628529999 -0.2818600516023586 0.04914442699980388 -0.013334469211158398
 -0.09104507633328461 -0.020793641685918768
 0.06288806110415006 0.18251446204593214 -0.4115778408258106 0.24096111247641233 -0.04539587872706684 0.06192102669107735 -0.004228314277001759 0.0028419823488105202
 0.009286032756295463 -0.0009543536943822954
 0.0674222255757321 -0.2816775457806433 -0.04541041704537925 0.06191733896357342 0.10174746434352873 0.16617101562775413 0.007642896553162868 -0.00019236310503198786
 -0.012528288870855915 -0.006274925201564849
 0.0491266704597272 -0.013274429193672185 -0.004228110639694946 0.002840705372810718 0.007641015795278389 -0.00019228008518640607 -0.4695429769789219 0.4191092112167247
 0.0054122068312923155 -0.003504914613329806
 -0.09098367668512482 -0.02089042175697884 0.009286893323360931 -0.0009516677963280978 -0.01252743354678593 -0.006276291577458488 0.005413865717498293 -0.0035051447473712603
 -0.39543367714174127 0.2532730796949903
1.19 0.26940945348975776 0.523090928757782 0.08206311116041431 0.1815680269897596 0.04617344340139447 -0.2882755717155119 0.049309990058285895 -0.01943796351172186
 -0.09393803751142248 -0.010954909714411397
 0.08182643812954069 0.18151743466465586 -0.39511139335716317 0.24179083234043988 -0.03857751639158117 0.06915692614038293 -0.0037581616059747117 0.0038550132204140555
 0.009149680714386745 -0.0028974325719035537
 0.046471622029601437 -0.2880290906910948 -0.038590753966428026 0.06915395563420665 0.11489633384725596 0.15810866763694784 0.007709074369331697 -0.001681310679846554
 -0.013533641748400951 -0.0038452115660317253
 0.04927979383244499 -0.019371588177438157 -0.0037570683052135204 0.0038540572147969807 0.00770631384826895 -0.0016822079253215891 -0.43518805000463184 0.43346728582183425
 0.0051058458911213 -0.004659452590259136
 -0.09385237571663249 -0.01103697797029093 0.009148929669113601 -0.0028973045457450974 -0.01353259197399665 -0.0038423516926286865 0.005106866847098397 -0.0046602855200796045
 -0.37056763732652226 0.28686418335761205
1.2 0.30842671240727265 0.49776546869495286 0.10202431885893534 0.1786537808296879 0.024157939945521886 -0.293572138767678 0.04884589490153261 -0.025771079329660555
 -0.09580168846769697 -0.0008871021456951955
 0.10177725145268683 0.17865946396195423 -0.3800980869954932 0.24173348010318496 -0.030443702073214278 0.07561766641843592 -0.003053352187210417 0.004807074433394683
 0.008612272767261906 -0.004821161065602274
 0.024491987831521136 -0.2934580057837135 -0.030460142306735227 0.07563553543057365 0.12669920016689412 0.14916746312484205 0.007500998342059986 -0.003205502882960997
 -0.014082996714624018 -0.001282595397132831
 0.048822149033219575 -0.025698308486929458 -0.003051618485214005 0.004805315564849476 0.007495099624947828 -0.003204724988997925 -0.39969786216218167 0.44516590728772937
 0.004578600397906442 -0.005816120364390137
 -0.09570902436534763 -0.0009976396772462016 0.00860947063607509 -0.004818386675214635 -0.014073650466317764 -0.0012817647530701335 0.0045799304671999925 -0.00581543970869544
 -0.34329585333796475 0.3178129950671459
1.21 0.34372011744574216 0.46830849565570615 0.12280441498084205 0.17354976314116083 0.0010543992548032455 -0.2976430956326608 0.04765763829797268 -0.032291661106276855
 -0.09666304132463942 0.00929791943478915
 0.12255036688914195 0.17354383140148175 -0.3668533247007986 0.24115088401003104 -0.021073347648799957 0.08103362688318243 -0.002111895660013125 0.00564083499778056
 0.007677487073993953 -0.006640720478586466
 0.0014122901428819303 -0.29751634823478024 -0.021099309917904766 0.08105212562829923 0.1370744172718026 0.13926347035067171 0.006995900598510457 -0.004713946258727454
 -0.014159067020455133 0.001326414938498449
 0.047637562659995115 -0.03218871001690055 -0.0021125139055270005 0.005636879921668503 0.006990197133047865 -0.0047092684044960495 -0.3633964657174614 0.4540382603414422
 0.0038144043374402784 -0.006926924905510853
 -0.0965535677080572 0.00915484856791773 0.007675919615893707 -0.006633994923951051 -0.014147354450021585 0.0013230929169982877 0.0038150250441862247 -0.006926842913002011
 -0.31390743892108663 0.34592546035279104
1.22 0.37512515037565763 0.4354717396014763 0.14411803359744585 0.16582087671596918 -0.02315073797857002 -0.300217997188137 0.04571715120254119 -0.03890637261124935
 -0.0965276890421037 0.019513095170051096
 0.14385284162278425 0.16585286227462526 -0.355135265464172 0.24042856131475884 -0.010610478487295572 0.08514867442224476 -0.0009547956769512809 0.0062976385565329555
 0.006366817087736601 -0.008273336060648355
 -0.022783048415680792 -0.30008290294974044 -0.010626995508905572 0.08515880901351917 0.1458289456905665 0.12871517801007828 0.006197973449670982 -0.006150503535369445
 -0.013773359901551771 0.0039017012407183676
 0.04572864347547162 -0.03881057025343165 -0.0009566974722463108 0.006296020785871553 0.006196786015841227 -0.006147395074660018 -0.32645992900691434 0.4599603286514336
 0.0028167749086452187 -0.007952271417251633
 -0.09647231489819823 0.01935551744087432 0.006369363639073574 -0.008268927292686372 -0.013769929387373227 0.0038966454811880046 0.0028177679612857135 -0.00795210302038846
 -0.2828120135343066 0.3711735059594918
1.23 0.4023826164965692 0.39978433048832895 0.1655523127660506 0.15528582196811602 -0.04827563813657173 -0.300834460380342 0.043025619638199994 -0.04558002958116818
 -0.09543730255010224 0.029665440812960017
 0.1652681839081252 0.15534626326081694 -0.344859152825952 0.23998902232307537 0.0006867714882767316 0.08764891875329896 0.00038367995644756627 0.006728169149139949
 0.0047245209417074415 -0.009640024520056951
 -0.047918255086081996 -0.3008047760763439 0.0006790405305230171 0.08768835301393599 0.15290718716477716 0.11791482451941512 0.00512137141863331 -0.00746170394858562
 -0.012944498054027944 0.006358176592120575
 0.04304109441711198 -0.04549006717157445 0.0003828551796600458 0.00672724813955336 0.00511850742933378 -0.007457167702375605 -0.2892419646389802 0.46277121357381057
 0.0015934784752734753 -0.00884366659490082
 -0.0954248755903483 0.0295178471867592 0.0047284557216074625 -0.009640178611212824 -0.012942408871985814 0.0063534387963890765 0.0015958275961676985 -0.008846143902783779
 -0.25015716027428114 0.39342666529088527
1.24 0.4254106238908407 0.3617347195217376 0.1866820898474974 0.1417073949816852 -0.074231569274294 -0.29947534660873437 0.039521953401118234 -0.052243533022540374
 -0.09347575135379425 0.03972180166767371
 0.18643908460551642 0.14182153505042402 -0.3356311446795955 0.24003259581264239 0.01257053100946797 0.0884333341312067 0.0018635497997559107 0.006884014389382898
 0.0028054559784251925 -0.01068500741634302
 -0.07387669188098518 -0.2994250511613343 0.012566232638027301 0.08844265694058394 0.15844488826183808 0.10727361518441776 0.0037800995553212936 -0.008594452689701639
 -0.011710604750641828 0.008632860594375414
 0.03955772187144298 -0.05217075995005071 0.0018628770274716243 0.0068840113878223825 0.003779885852457432 -0.008593299383329965 -0.2519711585235711 0.4623240410393154
 0.00016050035928930295 -0.009564631491425746
 -0.09346421712479364 0.039584817375327305 0.0028071219686293023 -0.010683422426555055 -0.011709333326994883 0.00862975495272768 0.00016136209101810258 -0.009563895549585208
 -0.2164449582208977 0.41280441740467216
1.25 0.4440810059374804 0.3218332006480625 0.20699650669745423 0.1250154588131147 -0.10078508808494781 -0.2957689327849508 0.03517399073863109 -0.058840934400256645
 -0.0906507846713692 0.04962446714089175
 0.20677638857940597 0.12514489893045905 -0.32726801928007365 0.24080027210083416 0.024695968037299492 0.08730122295365188 0.0034281915007211973 0.006724325419167732
 0.0006757970525869478 -0.011348090704495275
 -0.10042830378179612 -0.2957577267053324 0.024686188150533896 0.08731345589645635 0.1625120028977691 0.09701746777766909 0.00220341959047238 -0.009500794195523125
 -0.01011187855128055 0.010662760694848606
 0.03519480013975555 -0.058761158490391985 0.003427499313855275 0.00672179027626083 0.0022004407482257115 -0.00949706710635536 -0.21507382304576103 0.4586634373034169
 -0.0014624956215096097 -0.010062087917982155
 -0.09063161000499508 0.049511637802330304 0.0006749906322102205 -0.011346035323947106 -0.010106858560049831 0.010661747485089558 -0.0014626154019096627 -0.010063675846873331
 -0.1818372525592549 0.42902245265950073
1.26 0.4584046193335851 0.2804722091570331 0.22602255847829864 0.1051442833791179 -0.12762983438039446 -0.28952999219076214 0.029901561484134424 -0.06528881226108581
 -0.08695041951257898 0.059401691418273374
 0.22579106482511255 0.10526979920413956 -0.3194497288394357 0.24227655199525305 0.03669592435563159 0.08420088125330674 0.00501540138535614 0.006216929725197893
 -0.0015987749478952311 -0.01159318616621158
 -0.1273107300954906 -0.2895313448821141 0.03669783751043412 0.08422278564314871 0.16550392971246491 0.08726271030954166 0.0004217218193161207 -0.010130804221161254
 -0.008187118284660259 0.012403046706656254
 0.02992146547900241 -0.0651916597202649 0.005013169166768538 0.006213749509296488 0.00042032142846013703 -0.010123635605526149 -0.17882061414291972 0.4516940116286921
 -0.003248889734520869 -0.010295259018158994
 -0.08693036933535325 0.059267947431448136 -0.0015973024078702258 -0.011590505314138938 -0.008183475887171662 0.012397064640763579 -0.003248377586554706 -0.010298152641422833
 -0.14660855905297637 0.44252415166973674
1.27 0.4683217372377724 0.2380858474089644 0.24315560688350518 0.08217264370460603 -0.1545177912178978 -0.28062718738346737 0.02363560081550213 -0.07147103550749218
 -0.08235403690966804 0.06898201976229985
 0.2429400269450988 0.08231441790901103 -0.3118508013186909 0.24450521343615073 0.048190554571438206 0.07917821253933102 0.006549069432235108 0.005343839342191124
 -0.003932984910482302 -0.011392064153199375
 -0.15416513206844695 -0.28069796615773385 0.048182074800686696 0.07921395539699135 0.16749437925271873 0.07818485763371431 -0.0015177470683273159 -0.01044112095818614
 -0.005994351551690692 0.013804762777765007