! AWR Design Environment (19377) Sat Dec 27 02:21:50 2025
! Document = 'EM_Extract_4_way'
! nPorts: 5, nXvals: 401
!
! Created with skrf 1.8.0 (http://scikit-rf.org).
# GHz S RI R 50.0 
!freq ReS11 ImS11 ReS12 ImS12 ReS13 ImS13
! ReS14 ImS14 ReS15 ImS15
! ReS21 ImS21 ReS22 ImS22 ReS23 ImS23
! ReS24 ImS24 ReS25 ImS25
! ReS31 ImS31 ReS32 ImS32 ReS33 ImS33
! ReS34 ImS34 ReS35 ImS35
! ReS41 ImS41 ReS42 ImS42 ReS43 ImS43
! ReS44 ImS44 ReS45 ImS45
! ReS51 ImS51 ReS52 ImS52 ReS53 ImS53
! ReS54 ImS54 ReS55 ImS55
!
1.0 -0.003789166978226448 0.21650936978153 -0.15020093137021617 0.01013567914497603 0.3004865571565241 -0.057045360291617414 0.006706809008351013 0.027684373262536477
 -0.027218099822582997 -0.04267871616020372
 -0.14976214832646173 0.01004048052593436 -0.7258210688747061 -0.062489090710491094 -0.030533297799217807 -0.03308407743478708 0.001916994853892833 -0.0012919590772035245
 -0.002479197243440977 0.0032749410713463433
 0.2996939353639059 -0.056821644252955224 -0.030548129259404908 -0.033086862495105625 -0.2844223585477764 0.30848962703164473 -0.00355253081863121 0.0030744918046859858
 0.004202669349717725 -0.007214035347626201
 0.006678561888637958 0.027608155147153746 0.0019170882463495022 -0.0012923043468604 -0.0035522949841732326 0.0030736737954112155 -0.6352742748358374 0.03719116030217294
 0.0012550394606889806 0.000511353875069174
 -0.027116447211826378 -0.04254737549755483 -0.0024779607266950388 0.0032742397571647497 0.004200658937558447 -0.007209538844664715 0.001254512103220507 0.0005110867232705374
 0.19530814124376197 0.5017627115352666
1.01 -0.02768303112989 0.20596676241930575 -0.15178968181485505 0.02922492840628214 0.2945360695857598 -0.08995824627880293 0.011722016062781275 0.029337171614083408
 -0.03430885372176588 -0.041844338867327316
 -0.1514114900132799 0.029094920862730526 -0.7166445160005367 -0.03375130593976226 -0.03577691311666272 -0.029406048206416784 0.0017761018511541682 -0.0018853912454405708
 -0.0019261415671863993 0.003995794271557387
 0.2937983222677588 -0.08965624087535616 -0.03578002801404166 -0.029401084857332307 -0.26183217698081646 0.31753390725214375 -0.0031199227207434105 0.004110580610810984
 0.002970617234697194 -0.008324716945322757
 0.011685744216500756 0.02927680473970085 0.001776732985630142 -0.0018860849590703463 -0.0031215926350537286 0.004111762724185192 -0.6111109623447116 0.0639279903678764
 0.0015557541012706348 0.00034360015671850574
 -0.03417657973733365 -0.04170992409385003 -0.0019241946859202027 0.003992243530501042 0.0029686029216318736 -0.008317030900348717 0.001553787554209876 0.00034309813963720687
 0.22675595247387528 0.4870516379050164
1.02 -0.05517098218149079 0.20373167794508354 -0.15052814255305152 0.04862946713553943 0.2838784642995797 -0.12161239260945753 0.0175778924710646 0.03018662685228408
 -0.041669418444069815 -0.039789609518175346
 -0.15012826229973814 0.04843732307290155 -0.7060385296989772 -0.005819343075837715 -0.040487382407765116 -0.02490442806458207 0.001460180355110178 -0.002497876723946735
 -0.0011716545555231675 0.004625143781136562
 0.2831273391436926 -0.1211164991691065 -0.04048028298751808 -0.02490786998992678 -0.23924099600838775 0.32473953316701215 -0.0023895076710048636 0.005117676626617924
 0.0014460627678717771 -0.009202567053040506
 0.01751560344736517 0.030100445389592986 0.001459615252133719 -0.002497365196858157 -0.0023879982627233154 0.005117371811758302 -0.5844198174958715 0.0881285491939118
 0.0018652262701212327 7.796918538271414e-05
 -0.04146260169117252 -0.039667190071236 -0.0011727616036189695 0.004618523949465376 0.0014482487386728027 -0.009190919550884628 0.001863241545745614 7.909158507405248e-05
 0.25716022676668737 0.4705968694531384
1.03 -0.08377048389903995 0.2108265156322452 -0.14630406659041173 0.0676622904936157 0.2688552168711685 -0.15086486708713714 0.02411140073160148 0.029888604562177234
 -0.04901518912198277 -0.03639770428820512
 -0.1458828728228028 0.067367570273322 -0.6937925957265317 0.02116699198493303 -0.04446348500179485 -0.019720907221635997 0.0009450394340432683 -0.0030700473215424682
 -0.0002330051640011357 0.005100137313710079
 0.26817440004330845 -0.15016464584889538 -0.04446135856764895 -0.019737971465289706 -0.2168713144227542 0.3302117133100601 -0.0013449068324360629 0.005994860396293203
 -0.00031568736074032107 -0.009761880435305924
 0.024006423687776012 0.029787833371819422 0.0009441984732135254 -0.003068216750003687 -0.001341411133340874 0.005991085757469413 -0.5552506188257392 0.10928258477314585
 0.002155155933507555 -0.00030168839839900475
 -0.04879724480795443 -0.036324467680627366 -0.00023598577040325654 0.005097736248846993 -0.00031291464193999646 -0.00975664149255451 0.0021557482503467146 -0.0003002602570288147
 0.28624412935385296 0.45249688773988633
1.04 -0.1104155092670405 0.22771034811757593 -0.13937427400689306 0.08571566809950817 0.25022434523704046 -0.17690431403050663 0.031073613138412903 0.02818944167174275
 -0.05604201514522519 -0.03161603297181251
 -0.13903845096446413 0.08529967551020748 -0.6801305567307137 0.04705517319664427 -0.04765826187826674 -0.014059099883014119 0.00023050101566434822 -0.003538876829635232
 0.0008544924150874222 0.0053696688519944144
 0.2497697986011357 -0.17606707976476507 -0.04766822082119753 -0.01407678833722405 -0.1948527186810769 0.3342488481835859 -7.657518285751879e-06 0.006643414386382106
 -0.002240409890394423 -0.00993839074118862
 0.030935632385029683 0.028138527727766104 0.00023124492262267956 -0.003538219393139095 -7.234050622661721e-06 0.006640331004100468 -0.5239462565806885 0.1269279561840446
 0.002392567456497795 -0.0008056768110465528
 -0.05582203623820442 -0.031615707383517766 0.000851428522408732 0.0053707124734440215 -0.002236979717613774 -0.009937160732097114 0.002393513696856858 -0.0008050223483494571
 0.31418934470810056 0.4327852025359226
1.05 -0.1322167246632392 0.2534771015926749 -0.13010903875215377 0.1023110642736109 0.22899588211017882 -0.19922183240339517 0.03811052027947859 0.02495989140776781
 -0.06243938963322751 -0.025543262940807554
 -0.1299509462574614 0.10186471787311646 -0.6650807355306718 0.07177596097980429 -0.05007013078887352 -0.008070544368616102 -0.0006607985371117338 -0.0038380400961453356
 0.0020402815184161023 0.005391862631426625
 0.22881025515751385 -0.19841489145172847 -0.05008014115982569 -0.008076000602644734 -0.17339184324636975 0.33697787381607114 0.0015605620932060064 0.006970303014993819
 -0.004230210619794604 -0.009693049456410557
 0.03795819378283236 0.02496944051145479 -0.0006587835030857959 -0.003837341737246089 0.0015569983607396152 0.006967614067300938 -0.4911162238451394 0.1406073310781877
 0.002535174506290901 -0.001430718739547732
 -0.06223613251195556 -0.02559142346868433 0.002038605003992288 0.0053918781568874415 -0.004226969114459127 -0.009690860358816495 0.002535294722711342 -0.0014314773875209598
 0.34071767263031383 0.4115698356153949
1.06 -0.14679562584178224 0.28637156196563024 -0.11907696801654864 0.11720217579654746 0.20621379437275314 -0.21767780562116068 0.04488587766811941 0.020139704653536546
 -0.067976584574544 -0.018348179363042602
 -0.11901258817758033 0.11677218479688098 -0.6489901596573272 0.09513348161435818 -0.051718186399354604 -0.0018837329960428657 -0.0016882874328670622 -0.003906672769599921
 0.003263749090248413 0.005139493419761576
 0.20615626362106548 -0.21694560806395508 -0.05172731048223343 -0.0018828168866360886 -0.15231702210247403 0.33864611320441823 0.0032755414502182783 0.006900716265537675
 -0.006180733748214048 -0.009014752693130727
 0.04475115991750244 0.020179949407790356 -0.0016869583335209861 -0.003906861031481565 0.0032724285218484785 0.006900005711672106 -0.4571801383878329 0.1498156236361001
 0.0025407417663425016 -0.002166122482789386
 -0.0677683664120007 -0.01842184134531479 0.0032609859345994483 0.005137618690906071 -0.006174356554632155 -0.009010131034855776 0.0025394882140930652 -0.0021654312821343348
 0.36605933040436767 0.38894372744111017
1.07 -0.15229685874401416 0.32390447414939316 -0.10668414591529599 0.13020379044829333 0.1827545750304578 -0.2323876383748488 0.0509837137887401 0.013750824623755582
 -0.07241280632316287 -0.010204204668204469
 -0.10672472098514134 0.12983024486780298 -0.6315776786215687 0.11707443049848165 -0.052629452102808505 0.004389378366684873 -0.0027848921116753107 -0.0036914273485490817
 0.00445350184210996 0.004597131573293235
 0.1828465413089571 -0.23167816534726404 -0.05262319020295101 0.0043816757650656435 -0.13167224742970396 0.33913269640707366 0.005020370353567743 0.006382182025960902
 -0.007983588813489036 -0.007915530583841411
 0.050868811428970075 0.013821940673589932 -0.0027833591930904516 -0.003691504825387419 0.005019200450118012 0.00638252391039661 -0.42279549553178275 0.15426209056924967
 0.0023640017146113143 -0.00297845392199336
 -0.07223062540283726 -0.010339332530443342 0.0044479319877282625 0.004596776327901882 -0.007975906402804997 -0.00791505436616833 0.002363845288035309 -0.0029763493588750066
 0.38973644375648286 0.3647894815626502
1.08 -0.1481960349441069 0.363384369414129 -0.09349615815635956 0.14145182474829382 0.15946707302786517 -0.24381889205025636 0.056093973567761406 0.005913700933033863
 -0.07562731581399841 -0.001394860798275208
 -0.09357345709461157 0.14112873817898228 -0.6133255141887838 0.13755253425954317 -0.0529099587179 0.01067181618222936 -0.003874368507474418 -0.0031659449685489316
 0.005539464288751578 0.0037794782329880227
 0.1596720044661306 -0.24318803693459065 -0.052908938045293154 0.010652695255169571 -0.11127556469245652 0.33881614776994295 0.006682649023720465 0.0054069088597192205
 -0.009550307838283794 -0.006449505320214387
 0.055974829914141745 0.005998288591999839 -0.0038711258896697064 -0.0031651244589159973 0.006679519220619172 0.005403710312920915 -0.3886960182571296 0.15378431637008078
 0.001971403793726578 -0.003825273500561667
 -0.07547853471331059 -0.001564558008911681 0.005533000959112021 0.0037819716668785483 -0.009542282621558247 -0.006451136593394206 0.0019736128015915887 -0.0038242279193994202
 0.4118445409124724 0.3391383714013077
1.09 -0.1345475524295913 0.402248481629361 -0.07975021896368582 0.15111066858939445 0.13685815404727594 -0.25254224480338267 0.05984808605872826 -0.003166044876540453
 -0.07760142965350292 0.007854643297497334
 -0.0799103953198718 0.15081015233665357 -0.593990660170602 0.15645046392666162 -0.052617657507126915 0.016942825411282596 -0.0048627950018707055 -0.002321048633293956
 0.00646193702232707 0.002713034824143541
 0.13718919597704518 -0.2519476773930347 -0.05261556922453838 0.016921818823298043 -0.09105771546976778 0.3374348635910767 0.008130530704634056 0.00399098987724973
 -0.010813351251293016 -0.004681665882380646
 0.05974659800832167 -0.0030464475235539093 -0.0048589025558453125 -0.0023207116566449333 0.008126629713693864 0.003988114040069545 -0.35569221169742016 0.14828869469576433
 0.0013416135783023784 -0.004653347607691702
 -0.0775068008438677 0.007670943592648657 0.006458279692293578 0.002715848814370267 -0.010810437738148262 -0.004683257284780284 0.0013435657915681317 -0.004654566247913724
 0.4321954867823112 0.3122851138887083
1.1 -0.11209939519006182 0.43817445849129366 -0.06571528765974999 0.15943266084554572 0.11517105838626619 -0.25909482192406 0.06196419080560785 -0.013215736168344582
 -0.07825646088123378 0.017319016187120777
 -0.06590908894391734 0.15920059044752105 -0.573640564306862 0.17362315018691857 -0.051779070788931715 0.023239953677490634 -0.005658030249014988 -0.001174017644274399
 0.00716384569952463 0.0014304544302819362
 0.11555734288927837 -0.25872374334290804 -0.05179329370188441 0.02323236869112609 -0.07097482074216915 0.3347641486456685 0.009249452257938424 0.0021826662874428896
 -0.011716154942829255 -0.002673585306180076
 0.06189799088242044 -0.013100081451125404 -0.005654688938668429 -0.0011734208963671891 0.009242867667389893 0.0021790817229376163 -0.3246081132642376 0.13773066677216647
 0.0004575168834584426 -0.005394095074574498
 -0.07823108719733227 0.017129059340439554 0.0071628224268528275 0.001435422325793868 -0.01171281398028747 -0.0026786128512263406 0.00046144275008009786 -0.005396931102077918
 0.45071285423529805 0.2842689050334462
1.11 -0.0822334563230594 0.46929732401703017 -0.05140156471711621 0.16671494526911257 0.09445507922944864 -0.264169973905018 0.06224913267701428 -0.023886887127202036
 -0.07770694796870876 0.026796955966811385
 -0.05162643551339327 0.16654766298225515 -0.5527021241922716 0.18883064587026857 -0.050393897066226476 0.02960806826162393 -0.006169530583471401 0.00022727042508715527
 0.007605625929222833 -1.8006819617398616e-05
 0.09485112407650212 -0.26392806389827617 -0.0504070940774135 0.029608699122326027 -0.05125099193776443 0.3306844026848068 0.00993066063490267 7.148283294807671e-05
 -0.012226592987169573 -0.0005112578466303834
 0.06224908416644249 -0.023749590608786852 -0.0061683810892302245 0.00022470430364992708 0.009926652796120388 7.446735880858955e-05 -0.2965554585312809 0.12248885069061903
 -0.0006628845731353794 -0.005980718327219986
 -0.07770481475643612 0.0266422138667337 0.007604859357220405 -1.6048158931479965e-05 -0.01222282925539579 -0.0005129648101442584 -0.0006638556965939149 -0.005981215660327695
 0.4672836848882107 0.25533949015198093
1.12 -0.04658632113584722 0.49442612606173414 -0.03675969719504286 0.17310523846626935 0.07457208996291999 -0.2682298241244775 0.060606815585793235 -0.0347810482890315
 -0.07601013539345444 0.03611598342491545
 -0.03698665500170785 0.17298370540524782 -0.5313737817753109 0.20201841109474356 -0.048386098147838584 0.036051861548249284 -0.006318291721373488 0.0018054515040824446
 0.007748827550372455 -0.0015773651086237572
 0.07496352930692746 -0.26808334373260595 -0.04840295443620124 0.036057043298736886 -0.03214066394732232 0.32529084398403907 0.010100114938320536 -0.002223704784604287
 -0.012328371114227918 0.0017253174425965996
 0.06065495528765419 -0.03466474665753161 -0.006320100595182459 0.0018033087116556277 0.010099750365931037 -0.0022205423132866404 -0.27228335122632796 0.10294944273528421
 -0.0019929757838645468 -0.006343170505002532
 -0.07604094620117693 0.035974120386980946 0.007749374175946288 -0.0015751953394224708 -0.012325456794804084 0.0017225893292082553 -0.001993327839444367 -0.006341930198677161
 0.48197237876564464 0.2256055124996164
1.13 -0.00684641744840353 0.5127239017835996 -0.021700127169963515 0.17875559735459895 0.05532949748294115 -0.27167002728516393 0.05703327207736293 -0.045539990759971845
 -0.0732849867961053 0.04518952286078752
 -0.021886891204904377 0.17860700614332325 -0.5097672682023134 0.21301100930191463 -0.04568117440025023 0.042547751432561266 -0.006050520705507347 0.003462487211771587
 0.007573480807014155 -0.0031883081216566586
 0.055685211443006685 -0.2715073800394807 -0.04570876972070548 0.042552556105097415 -0.013738557905389194 0.3186092590030713 0.00971720659726946 -0.0045722332391823035
 -0.012025504357544783 0.003962800338395955
 0.05705365908176909 -0.04543515096068933 -0.0060512008586129555 0.003461528262832426 0.009713361690216442 -0.0045713379022822714 -0.2526947938358488 0.0797943288563305
 -0.0034849661082003275 -0.0064197339300861005
 -0.07332643321315989 0.04505177965744476 0.007577035141148455 -0.0031854767537236725 -0.012025123796126476 0.0039594704008500264 -0.003483794400721354 -0.006422436742952703
 0.4947496951970814 0.19520317224190648
1.14 0.03522803679410638 0.5240196695771413 -0.005950222067512867 0.1836555430490826 0.03629083204261127 -0.27468059010309204 0.05151646444746527 -0.055789029133623685
 -0.069572789485354 0.053927098042994996
 -0.0061785886927077805 0.18359812626451932 -0.48836871328230885 0.2218321625838093 -0.042201018865050115 0.04909106320818002 -0.005338138897108622 0.005087306407514154
 0.00707067153686235 -0.004790920551658557
 0.036646978661922486 -0.2745677712832989 -0.042206274661191104 0.049089690986277607 0.0037806601021108496 0.310596202270165 0.008767666685315516 -0.006841823712855534
 -0.011327396704105167 0.006139116350162053
 0.05155259653025945 -0.05568570478563572 -0.005336084040527628 0.005085135026728373 0.008763421496134469 -0.006839278820412265 -0.23847436565387803 0.05400797879142228
 -0.005072772333897012 -0.006164557511670959
 -0.06961431818079504 0.05379772482288133 0.0070698188146760335 -0.004788292185851184 -0.01132484543787658 0.006135925352333308 -0.005072434802278818 -0.006166382620235927
 0.505630641168386 0.1642016702717337
1.15 0.07822423599942457 0.5285598644831737 0.010592855149133358 0.18785052212632306 0.01717454084199023 -0.2772797401834252 0.04421688662268803 -0.0651899923124015
 -0.06492625099924672 0.06227568070276611
 0.010401208905546553 0.1877518869803609 -0.46752105181847403 0.2285552377630054 -0.03779151066904196 0.055565140876894105 -0.004182798979842291 0.006557351370281996
 0.006229479424546944 -0.006322084847616513
 0.01749893710120978 -0.27723091323094595 -0.037820048437413836 0.05558457662516187 0.020225558222320097 0.3013692497702163 0.0072785900978607 -0.008893308535951877
 -0.01024422352737364 0.00819210921902658
 0.04424444140034681 -0.0650730423661178 -0.0041818011239192175 0.0065538205474701015 0.007271360928612311 -0.008885425106855905 -0.23005008065224317 0.02658863015824327
 -0.00668213645737144 -0.005541404790615391
 -0.06495053521398798 0.0621448184428161 0.0062296164962868964 -0.006319068584944444 -0.010237462531468362 0.008185675876558138 -0.0066829812021166855 -0.00554338618665991
 0.5145247962283016 0.1327186694283103
1.16 0.12099204464456705 0.5266273132510015 0.028185117753435372 0.1910761325663339 -0.0023657210172380637 -0.2794204379267396 0.03528576375132182 -0.07337583638883019
 -0.0593679441593761 0.07013191547740553
 0.028000801820148153 0.1910318068841311 -0.4474921438178297 0.23330959764353923 -0.03236779469219125 0.06187191061304196 -0.0026224490358649306 0.007748661543579198
 0.005058854402453453 -0.007712930571642521
 -0.002065758671185191 -0.2794283082778849 -0.032390350347460836 0.06189050296356122 0.035501565965090014 0.2909293466654028 0.00530206941335291 -0.010588720606718753
 -0.008791890636492402 0.010053606300552869
 0.03535195853823172 -0.07328124724483251 -0.0026241145669852603 0.0077452637750410275 0.005300015005261222 -0.010580299649035767 -0.2275900092950523 -0.0012846032224683086
 -0.008222619939749942 -0.0045355491944184525
 -0.059411999811143916 0.06999896393719428 0.00505970264044832 -0.007707652054657613 -0.008787031574308138 0.01004342421663338 -0.008221504366399141 -0.004535628766197164
 0.5213630153733467 0.10078031427008853
1.17 0.1623647287893796 0.5187782327356085 0.046992606985760105 0.19310618885921166 -0.0226319174448443 -0.28102577599639433 0.02501290712145037 -0.08009848640974093
 -0.053018532780104176 0.07740911774253323
 0.04679293155485608 0.19303498839152428 -0.4288184981456458 0.23635171606907163 -0.02580625346921049 0.0678087945658321 -0.0007303744205066217 0.008547008711609273
 0.003581203430467084 -0.008888577118945298
 -0.022333383113402654 -0.2808921603267652 -0.025815527700374215 0.06780746932823442 0.04898627140740893 0.2795994168429437 0.002934911279386629 -0.011812702275094684
 -0.0070090617003263364 0.011655345457879843
 0.025091918215493166 -0.07999727244527362 -0.0007333055751125286 0.008544305781887 0.002936843093213109 -0.011808294034274488 -0.2311467351520458 -0.02850175833045305
 -0.00959494109576284 -0.003159901491755586
 -0.053071872102215374 0.07726915355794883 0.003583786671285171 -0.008884192409988629 -0.007010033929288833 0.011649174250942753 -0.009594398906558112 -0.0031602948243928384
 0.5261941893452103 0.06863607528958625
1.18 0.20166835366825617 0.5057756487472364 0.06698543457355197 0.19354979602732705 -0.04372985968621375 -0.28158931823982575 0.01369521528071964 -0.08516575070150542
 -0.045918633529792745 0.08407050246442305
 0.0667871325377977 0.1935160805406149 -0.4115280117970298 0.23801108135345125 -0.01808128915377669 0.07310318810893714 0.0013856700098246815 0.00886664438859799
 0.001834798769564485 -0.009786647208145403
 -0.04341760900389327 -0.28149084267370883 -0.018092949924972727 0.07309741186300597 0.0609158690784144 0.2676445621161454 0.00030120355919209876 -0.012484545568077873
 -0.004941827730024557 0.012948054716256954
 0.013792209743358227 -0.08508984466629663 0.0013819177927616828 0.008865252184025032 0.00030390137485448694 -0.012482225468656388 -0.2403009077843637 -0.05394537450314917
 -0.010723448117552584 -0.0014501154628936532
 -0.04599811832738597 0.08396820933853116 0.0018383870908621112 -0.009785296591955211 -0.004944406772515236 0.012946631316021032 -0.01072508128135505 -0.001450227093155602
 0.528873568862335 0.03634315121123158
1.19 0.23831159167045454 0.4883129353194027 0.08814137833380184 0.19204226844877137 -0.06577631729094154 -0.28098104966269427 0.001676377609995009 -0.08847569713354962
 -0.038164562929504396 0.09007905846719326
 0.0878900835479469 0.1919900719810003 -0.3957645182511261 0.23873945332183175 -0.009219718798104544 0.0774875569386875 0.00359424580534066 0.008647677480412097
 -0.0001266883774601701 -0.010343052691386086
 -0.065404306138059 -0.2808281479443829 -0.009231048031166198 0.07747921014666635 0.07107123560534752 0.2555458394466179 -0.0024596136551046305 -0.012551962772003905
 -0.00264477257163033 0.01388136046137678
 0.0017534853831796295 -0.08838982904838444 0.003594168679113336 0.008645343068168254 -0.002462332238802956 -0.012549548812076658 -0.2545580888057054 -0.07664411939853764
 -0.01153036758336598 0.0005408249104811041
 -0.03822910717366633 0.08995102168886715 -0.00012520584126213721 -0.010340721237993952 -0.0026441820748613295 0.0138794865330249 -0.011530562639022853 0.0005381915580880454
 0.5295185621630746 0.004160916845018393
1.2 0.2720019838129206 0.46710510890720813 0.11023097038884562 0.18813301127230997 -0.08861476345717975 -0.2786728464637867 -0.01077066776303989 -0.08994510474469496
 -0.029780282488009846 0.0953923503812855
 0.10996919725156089 0.1881419472080315 -0.3815063085802718 0.23876299482490607 0.0006676692034908341 0.0806542481261885 0.005757164451675996 0.007867594137696405
 -0.0022410618993103665 -0.010508754415184025
 -0.0882392858469388 -0.2786747554347952 0.0006541664236267685 0.08066960086824916 0.07971713443110286 0.24341008004544323 -0.00520676105359941 -0.011997590685527153
 -0.00017670480751619854 0.014417362079177567
 -0.010680904182456808 -0.089843887280645 0.005754998579772875 0.00786125096874165 -0.005206844260194414 -0.01198550535637415 -0.2732627881639564 -0.09570755759373714
 -0.011953355896401523 0.0027464171747871987
 -0.02985571025558735 0.09526460655825517 -0.0022396351710444276 -0.010504401068963333 -0.00017481607260975138 0.014408549071663099 -0.011956822366832041 0.0027440610857465656
 0.5279644951050678 -0.02774896118147117
1.21 0.3024180809334041 0.4427420246953666 0.13299207335141983 0.18155058840359362 -0.11218971936266756 -0.2745999061852383 -0.023357970920859734 -0.08957028929498277
 -0.020850144613860273 0.09993779328987742
 0.1327230861874265 0.18154872530860272 -0.36901702696581734 0.23846861233728 0.01139291421642282 0.08237787708107998 0.007727197037591774 0.006539649060504821
 -0.004424300369759659 -0.01023960675169094
 -0.11180151542202883 -0.27457647688966685 0.011376254805357124 0.08239237390298906 0.08670453566799591 0.23138223493262103 -0.007796211973323499 -0.01083249173171473
 0.0023893286958050278 0.014514725393211145
 -0.023209142245961767 -0.08949110030968319 0.007720680814351544 0.006539191869936043 -0.007789298346709101 -0.010826522249052577 -0.2954893805617762 -0.11059675116695511
 -0.01194726788827998 0.005083684146325131
 -0.020967470258553306 0.09979688535681834 -0.004417925670961953 -0.010237460589256392 0.0023847370420479017 0.014507305718710001 -0.011949009777246385 0.00508348101476906
 0.5244735579168774 -0.05925991591563761
1.22 0.32960062598581796 0.41590805375351086 0.1560155721250389 0.17187863423818675 -0.136357371934226 -0.2683506523524832 -0.035749799462150074 -0.0873970381870907
 -0.011441304990993368 0.10368842107657122
 0.15573616909711366 0.17191846454756637 -0.3579917768297838 0.2382474305463556 0.02272595317751104 0.08241327583400267 0.00935955662130088 0.004724925106320386
 -0.006584946892035993 -0.009516382446175448
 -0.135972272507287 -0.2683742631181727 0.022715909497124993 0.08243135182854291 0.09217507687558403 0.2197259348352257 -0.010091052862764403 -0.00911579083542114
 0.00497971687284148 0.014164244149694154
 -0.03557278598588087 -0.08735954389252594 0.009353124110427406 0.004728477584312919 -0.01008159381665795 -0.009114750738972091 -0.3204340300818649 -0.12095164669333781
 -0.01148246937772595 0.007467759073941776
 -0.011583229004552973 0.10356356892864638 -0.006578042331858361 -0.00951611880507637 0.00497270827105499 0.01415826229626635 -0.01148213413967054 0.0074691971088657666
 0.5189950138519273 -0.09041796193707326
1.23 0.3534861367666031 0.38704304938209366 0.17876119903803306 0.1589852158405276 -0.16069647287161354 -0.2597439619738766 -0.04764106391752133 -0.08355892983406829
 -0.0016225231461759022 0.1066243684972278
 0.17846353040377066 0.15905683059781067 -0.34827587811021193 0.23850769211294257 0.0342730815165387 0.08059590850764455 0.010531553389541029 0.0025280835380615367
 -0.008622774592685806 -0.008340946201437587
 -0.16036239858273982 -0.2597906784745059 0.0342861172467326 0.08061754531105882 0.09626004659442594 0.20890191136917172 -0.011965596010972242 -0.006938803976008776
 0.007508901516120925 0.013360255390648118
 -0.04750340471069696 -0.08356632012485 0.010531907185470715 0.0025307396620115304 -0.011961363502104059 -0.0069406834616186994 -0.347036723214287 -0.12645186029254116
 -0.01055092836847764 0.009804806779880658
 -0.0017751334525618312 0.10654124726813778 -0.008619272662115728 -0.008344110806531264 0.007500778191665415 0.01335933707569408 -0.010551296793927082 0.00980196933242269
 0.5116540215154254 -0.12106615583290024
1.24 0.3742628078956478 0.3565478065433765 0.2006773301050245 0.14273118601261325 -0.18499182287523183 -0.24856520805054647 -0.058912974547954286 -0.07825048159572483
 0.008541157230118121 0.10877500374422211
 0.20042584891154083 0.14285898425342058 -0.3394127466475477 0.239407688914425 0.045736800572734826 0.07684625737739217 0.011171713243022121 6.780253144039673e-05
 -0.010449089813008901 -0.006739514864375059
 -0.18461703259442722 -0.24865262400509253 0.04572890207519647 0.07685467299042185 0.09928412410124225 0.19907538689785717 -0.01334705260204366 -0.004409548770049191
 0.009899723909341034 0.012120587422001679
 -0.05878136497708653 -0.07825246198774768 0.0111687960640603 6.857940023691613e-05 -0.01334332991559331 -0.004407536235285734 -0.3745904668022409 -0.12715505538566627
 -0.009168622517794166 0.012008116074291813
 0.008406420358614252 0.10870381153199822 -0.010445720413306143 -0.006739790772231547 0.009896731997755506 0.012117951704546083 -0.009170169101819416 0.012007790823227433
 0.5023651904305704 -0.15107117770225847
1.25 0.3918570447959236 0.324646460807462 0.22119608093564924 0.12317870635897188 -0.20878728283589637 -0.23475554783593408 -0.06936855992368267 -0.07160804277334838
 0.019005965533052827 0.11010183902221707
 0.22097053413738746 0.12332225766129903 -0.3311758435276345 0.24112631422339384 0.056671442546232596 0.07115341684272174 0.011221678112994751 -0.0025136712926746327
 -0.011967294040653933 -0.004752241285252084
 -0.2084334399657122 -0.23485736341068766 0.056662104217276056 0.07116041710759544 0.10152509033531862 0.19029885719852674 -0.014173014683499038 -0.0016470358126554503
 0.012077240942397299 0.010467359942810867
 -0.06923778740836534 -0.0716182511581337 0.011218112753762636 -0.0025118717216695264 -0.014168366458461161 -0.0016458741010761235 -0.4021906832006574 -0.1231554267707519
 -0.007362911956892511 0.013988212903259639
 0.01888392818730012 0.11003324763960272 -0.011963636322197161 -0.004751390234408029 0.012074690719196531 0.010463356223420258 -0.0073626869053239515 0.013989195159188016
 0.49117296529224785 -0.18032338899016687
1.26 0.40643985345333467 0.29158870350524957 0.2397870479294232 0.10040432598331407 -0.23175865405712523 -0.2183413347711826 -0.07894485214900716 -0.06378865382838071
 0.029780868622910142 0.11058511509284705
 0.23955090840805285 0.10054450148569795 -0.32321970671286987 0.24357337533537657 0.06671724961815026 0.06363468565273081 0.01067454365077325 -0.005079638986157091
 -0.013103146454539211 -0.0024353838622254522
 -0.23145557246882362 -0.21848633229384912 0.06672524162115265 0.06365961352841755 0.10337479488080611 0.18249561139558612 -0.014428873452266108 0.001226492360869047
 0.013981347803244941 0.008441221145492988
 -0.07880697897424693 -0.06380919558734517 0.010672172634549969 -0.005076372636782912 -0.014420985404969996 0.0012254213075525103 -0.4292132111379023 -0.11482287472086966
 -0.005169375248747236 0.01567508488929445
 0.0296260228512927 0.11051304706029973 -0.013098111801999124 -0.0024384357562335034 0.013971919471746233 0.008438550412017506 -0.005171273461852319 0.015673942509885762
 0.4781355346356937 -0.20866292037585857
1.27 0.4180085704217277 0.25754442669923333 0.2558391023996688 0.07464070405590092 -0.25359031555735856 -0.1993529944310743 -0.08754893554527088 -0.05491212309232398
 0.0408022835648343 0.11017908810453671
 0.2556216398118669 0.07479718748250012 -0.31521901702030125 0.24671270679382934 0.07552109771543077 0.05449313393370243 0.009551637334902472 -0.007491450543289559
 -0.013788156385635776 0.00012914346549326483
 -0.2532488742164569 -0.1995095136743276 0.07551438521795681 0.05451625768511743 0.10495866949992312 0.175640430529555 -0.014109119326096436 0.004092897548843287
 0.015543511141258683 0.006090536426352479
 -0.08743142365570307 -0.05496077725729738 0.0095523189579187 -0.007488729604243946 -0.014106433029718443 0.004092614764152286 -0.4550263353315774 -0.10236526161621624
 -0.002644581553237503 0.016993058889980067