! AWR Design Environment (19377) Sat Dec 27 02:21:50 2025
! Document = 'EM_Extract_4_way'
! nPorts: 5, nXvals: 401
!
! Created with skrf 1.8.0 (http://scikit-rf.org).
# GHz S RI R 50.0 
!freq ReS11 ImS11 ReS12 ImS12 ReS13 ImS13
! ReS14 ImS14 ReS15 ImS15
! ReS21 ImS21 ReS22 ImS22 ReS23 ImS23
! ReS24 ImS24 ReS25 ImS25
! ReS31 ImS31 ReS32 ImS32 ReS33 ImS33
! ReS34 ImS34 ReS35 ImS35
! ReS41 ImS41 ReS42 ImS42 ReS43 ImS43
! ReS44 ImS44 ReS45 ImS45
! ReS51 ImS51 ReS52 ImS52 ReS53 ImS53
! ReS54 ImS54 ReS55 ImS55
!
1.0 0.0015359296919092713 0.47322263818017274 0.04104087119250493 0.17122240539755884 -0.04269373554554016 0.1816266158035549 -0.10238531965129834 0.03136945694219513
 -0.1343363683101443 0.0010989746876010464
 0.04084973094387634 0.17074505537788687 -0.7068264521073696 -0.09769087016406465 -0.019089747375839218 -0.03510402610581618 0.007551354494255088 -0.00893647523449562
 0.01227860444734229 -0.00804034270670256
 -0.042649291816325235 0.1810941202736163 -0.019090922697072566 -0.03510597132950207 -0.6245317093082458 -0.12122848608838847 0.011406062844345808 -0.004862357344938734
 0.015456257930059687 -0.0017647241398746965
 -0.1021086900027911 0.031238661779868455 0.007551707743224522 -0.008937123931273801 0.011406070791865293 -0.004862497414209251 -0.7276864596040185 -0.011726444524320579
 0.013152600143625924 0.010736758872665586
 -0.1339404676660075 0.0010373364126455174 0.012277939691186263 -0.00803971421087426 0.015454455581702374 -0.0017643054967058725 0.013150725171783995 0.010735748465950495
 -0.7268321213207168 -0.06283002392970254
1.01 0.0213234931507031 0.4700729969246722 0.061402306556107566 0.17128365338696572 -0.023758478301358382 0.19120428718392787 -0.1032307443266055 0.04324585314213188
 -0.13767623803041065 0.015624184058096765
 0.061187012426643414 0.17086357048302497 -0.7035252683735989 -0.07447627465060912 -0.02544395104166157 -0.033641828182939634 0.006119193508338055 -0.010768090276859394
 0.011006913494294423 -0.010672256449314852
 -0.02376996725362164 0.19070785401097354 -0.025443117396079313 -0.03364368064908516 -0.6181461173078194 -0.10630450949374441 0.010926394756640935 -0.007254327742823707
 0.015502114653780668 -0.004832458341822725
 -0.10299400482162907 0.043082370125162264 0.0061216523757794345 -0.010767511446538654 0.010927883215358042 -0.007252900449486347 -0.7160165830828076 0.0180918437325343
 0.015428269276520808 0.009463500815016625
 -0.137329256472615 0.015534142518510244 0.011007341375705216 -0.010672059325336401 0.015501862624021681 -0.0048326110240184935 0.015429134025126225 0.009460484889689256
 -0.7178925030994736 -0.03372490786142455
1.02 0.041088118133355334 0.4661097921284069 0.08222744323187922 0.16856032820390432 -0.0030086621961396397 0.19860487480364183 -0.10289367695509345 0.05564076780821566
 -0.1396081165964889 0.030760423202282214
 0.08192349064185399 0.16810069830385915 -0.6999164762344566 -0.05113013879976923 -0.0317976865549575 -0.0309649917870427 0.004250456371024533 -0.012361704475285437
 0.009156021958578488 -0.013088601033758198
 -0.0030769036830993607 0.1980537400445686 -0.03180217364781193 -0.0309695722518416 -0.6123731220231067 -0.09221881839797541 0.009934144054359322 -0.009644869572883952
 0.014919185054597786 -0.007986766796857303
 -0.1026163792199778 0.05543367924898897 0.004250985819414783 -0.012361326666368131 0.0099329959883349 -0.009642900232972625 -0.7028274055698647 0.04705448034782951
 0.017669368721562873 0.007806172840449495
 -0.13923181412463567 0.030622070549542326 0.009157210465839337 -0.013090395839147262 0.014918985615892291 -0.00798679135376918 0.017672398650143962 0.0078064313368044315
 -0.7073894988100964 -0.005298334007729569
1.03 0.0608907088898394 0.4611757373852295 0.10293124833890051 0.16286148851303922 0.019199568018682542 0.20339032459081943 -0.10120540746520919 0.06840202455593912
 -0.1399678279914207 0.046329346833845875
 0.10252631734196883 0.16240435813017168 -0.6952137574720678 -0.027631345503558388 -0.037857764176353934 -0.027040021495469177 0.0019886887320086843 -0.013599781291201077
 0.006767865326082311 -0.015142384861360778
 0.01904051838619166 0.20279721903500195 -0.03786421958731098 -0.027044238085812206 -0.6070159303657262 -0.07872516964399322 0.00840518947934506 -0.011908353186147275
 0.0136672884193481 -0.011078699462573907
 -0.10092200588716396 0.068112127868189 0.001990601534438211 -0.013597795153083353 0.008404736059685907 -0.011903528004758865 -0.6875364816515759 0.074909433773845
 0.019801881142746555 0.005753461898851884
 -0.13955452104116522 0.04610515835380806 0.0067686088022000735 -0.015141861160598596 0.01366555400282356 -0.011075919015339244 0.01980470825149632 0.005752032111782981
 -0.6950517283840403 0.022256360106006248
1.04 0.08087771269520708 0.454892083120088 0.1230632092685524 0.15432176277214973 0.04244610416771489 0.20534880132245067 -0.09818557861525416 0.08149087983910347
 -0.13880112281504853 0.062222585184517155
 0.12246301393946672 0.1539408965586622 -0.6899790733618901 -0.004067807668611631 -0.04335405003275297 -0.02194417793203019 -0.0005857957943629908 -0.014403893470538639
 0.003935381239541838 -0.016724269058578836
 0.0420718090432288 0.20471027820975216 -0.04335764845779472 -0.0219436614415717 -0.6024199050883812 -0.06563415693773032 0.006363509502087673 -0.01392985686734146
 0.011763911700728522 -0.013961535193377738
 -0.09798049148705319 0.08113097449764649 -0.0005864568056627023 -0.014409168637233653 0.006365625075088832 -0.01393404584431279 -0.6706692365870117 0.10143264991728707
 0.021808212388452854 0.003300217521162853
 -0.1384414476041466 0.06187957916219712 0.003935246893608358 -0.016730043551675747 0.011766436787630062 -0.013965712217156657 0.021807471186608623 0.0032989089593293036
 -0.681062480693644 0.04871102250717182
1.05 0.1008223677908533 0.4470484814463578 0.14204912951224802 0.14304020384787644 0.06623855398662465 0.20415187898079148 -0.09367814481546384 0.09478348778020346
 -0.136037826303829 0.07836457884280895
 0.14143920988617129 0.1429236936236172 -0.6835958664518046 0.019456761276933472 -0.04803896675718416 -0.015786475898441864 -0.0033912321417365705 -0.014701073889094642
 0.0007526234380323678 -0.017752625156888618
 0.06572978499250008 0.20373873155126002 -0.048039220058143504 -0.015782351777097775 -0.5982289786467788 -0.052647776179356065 0.003836330295128484 -0.015596589459130618
 0.00924027207583707 -0.016511561039474907
 -0.09359166073033744 0.09441541949915569 -0.0033954732089259395 -0.014701973642692743 0.003834045075586364 -0.015599500553788927 -0.6521178269245063 0.12638158373211025
 0.023617150206317727 0.00041045780482276993
 -0.13582877614854366 0.07796706071118008 0.000748972650412884 -0.0177549899718702 0.00923943453256344 -0.016515173387272472 0.023617199703797737 0.00041163007402113467
 -0.6654437104881391 0.07389825918077642
1.06 0.12046814210392527 0.43737484571307683 0.15964333453717938 0.1293636647145921 0.09013645737675335 0.1999476764261339 -0.08768483522453084 0.10825023742863461
 -0.13169865025519684 0.09472928856655884
 0.1591152216288793 0.129399974037237 -0.6764996279220203 0.042768057944100386 -0.05173294059453866 -0.008726035902794447 -0.006334042555826632 -0.014438626581033936
 -0.002680057194623113 -0.018158217078412756
 0.08960971065385745 0.19971148127766442 -0.051728702430502184 -0.00872487478446714 -0.5946786890881938 -0.03981735227264507 0.0008846477742892132 -0.01680366516823758
 0.006153132194876673 -0.018603451561396842
 -0.08767604858277993 0.10789935307581454 -0.006336499466733533 -0.014435622143801192 0.0008810789142312465 -0.016803371772107282 -0.6323504483016114 0.14958308848774704
 0.025178165295172687 -0.002932302596662682
 -0.13157287373734988 0.09432630039961956 -0.0026830129502438526 -0.018154162953258623 0.006149037212353542 -0.018602501418394302 0.025176153931715097 -0.0029313619997882894
 -0.648575551556369 0.09752301357971241
1.07 0.1394067076160339 0.4257311876033468 0.1754962934544866 0.11350167912813741 0.1136775205382391 0.19261687188815937 -0.07996312134951172 0.12175780829232206
 -0.12554968812502507 0.11119230533360583
 0.17504332965350874 0.1136035465969318 -0.6682954205888149 0.06593569694246333 -0.05421493957363385 -0.0009775298802919773 -0.009295755913251677 -0.013559155801229652
 -0.006232072532690078 -0.017864217572831374
 0.11320170724453567 0.1925059647296429 -0.054217487984944635 -0.0009772375216467078 -0.591516212449982 -0.02668463453917236 -0.00241547764026689 -0.01742598863734898
 0.0025765529766393707 -0.020088383681363016
 -0.08002611522275455 0.12141295059883399 -0.009293002595318947 -0.013557326628926208 -0.00241349457913232 -0.01742211895054758 -0.6114491107666928 0.17080912422182334
 0.026365373325739346 -0.006746168885798485
 -0.12553047844328064 0.11081843795286951 -0.006231899262850738 -0.01786410545626179 0.0025766697583082905 -0.020087235408294574 0.026369600955288723 -0.006749176329316619
 -0.6302533802569723 0.11944199950988517
1.08 0.15717606979410365 0.412118100448715 0.18942743984342794 0.09577068523084822 0.13643187761458336 0.18226509568646682 -0.07041207858166802 0.13514502364985875
 -0.11758383918893134 0.12768022528766382
 0.18902876432606006 0.09593298991125018 -0.659148439464461 0.08869485532737982 -0.055415799827132156 0.0071954060143711975 -0.012149383630721714 -0.012061269295307408
 -0.009763657791983531 -0.01686990672838691
 0.13600479031393223 0.1822272845758189 -0.0554189805001737 0.007203024491009757 -0.588739705413017 -0.01330495425982961 -0.0059395974458064955 -0.017376295833712932
 -0.0013581746827326336 -0.020869767939958636
 -0.07051380598583204 0.1348602617103742 -0.012150066179051108 -0.012060150870796853 -0.005938124661406 -0.017375019055146955 -0.5895643179486095 0.1900700247829683
 0.027103225316098538 -0.011029514569024408
 -0.11760919636512755 0.1273410987093299 -0.009765256887787494 -0.016868819073372593 -0.0013574612592866955 -0.020868112612707122 0.02710324054896358 -0.011030294910721805
 -0.6110666505764013 0.13956043604067506
1.09 0.17327560107237833 0.39667140222094394 0.20117310584421835 0.07640362691718613 0.15800323685042317 0.16898658495357197 -0.05883303270282142 0.14825562430132755
 -0.10752102252749873 0.14404144348277106
 0.20078510822422224 0.07663720234990858 -0.6490016494107302 0.11116353871225494 -0.05525638133612308 0.015546776177395078 -0.014767307471967802 -0.009944093407468107
 -0.01313649414273022 -0.015151857266720992
 0.15754237411017566 0.16905952906061994 -0.05526602419175518 0.015548575225421515 -0.586056920852618 0.0005937818612385997 -0.009553192063298533 -0.016589018318977425
 -0.005515534044127512 -0.020851975898010126
 -0.059003389491629234 0.14797667210585097 -0.014768491568038854 -0.009944522157671163 -0.009552760873870306 -0.016587023070087074 -0.5668394615467265 0.20714825987212795
 0.02724632303950978 -0.01575777637332262
 -0.10763848925497854 0.14370300858815638 -0.013138969885213347 -0.015154554169060487 -0.005516029427435813 -0.02085211893508965 0.027249614207726695 -0.015759243786125494
 -0.5908979799793649 0.1577438453982023
1.1 0.18720577799569343 0.3796917207115984 0.2105580376830242 0.05570533891204239 0.17791923857053185 0.1529200005392367 -0.04504644698553991 0.16075421256720637
 -0.09522818782139256 0.1600449535560789
 0.21025241502701314 0.05605044249390367 -0.637689562374064 0.1332646009829549 -0.053747802612298515 0.023821911798823488 -0.017017442615971594 -0.00723995575246259
 -0.01621091948807738 -0.012742696983745623
 0.17751657171720855 0.15313109143923082 -0.05375835117331418 0.023832380251158764 -0.5832897668962261 0.01509382281953819 -0.013103839105334334 -0.015010910911880844
 -0.009740149457989847 -0.019974839875512154
 -0.0452672975727251 0.1605186422129721 -0.01701828560150122 -0.00723556647569641 -0.01310227106761967 -0.01500468651319854 -0.5438204051406885 0.22205158364665134
 0.026652569871333364 -0.02088549125563929
 -0.09539885849426634 0.15976658293512855 -0.01621742970889164 -0.012738913796817124 -0.00974414096478746 -0.01997038883068897 0.026655370146398627 -0.0208921200283401
 -0.569945286581412 0.17387673811660964
1.11 0.19861874559544984 0.3617054872337199 0.21749746338756532 0.034022259506980054 0.1958565091056858 0.13441680742876697 -0.028872250610082868 0.17225944225823717
 -0.08048123776655 0.1754111210558243
 0.21734978123175241 0.03439608726170722 -0.6254390947297475 0.15485212646344265 -0.05097004882204169 0.03181113917791112 -0.01876948879306686 -0.003994733353002416
 -0.018854267275168035 -0.009676593662558733
 0.195552847633855 0.13467616474801122 -0.05096318734027768 0.031818034683692695 -0.5804053477371349 0.030122806264943874 -0.016416229685591564 -0.012622145915528656
 -0.013858153946274343 -0.018199591588587687
 -0.029110261628364918 0.172127970928069 -0.01876853613012453 -0.0039883908596155815 -0.016416854414373634 -0.012618574088247384 -0.520686497398686 0.23474445413654257
 0.025149769063173403 -0.02633575340740015
 -0.08070367475817176 0.1751951389552759 -0.01885427340703796 -0.00967023669603856 -0.013858747414424192 -0.018196247882336668 0.025150491786411537 -0.02633408811529065
 -0.5487570646509217 0.18779661222070604
1.12 0.2073267722824198 0.34341484250219845 0.2218757097332279 0.011703166325243413 0.2113770371971861 0.11369654317664532 -0.010321598876390281 0.18230097497356712
 -0.06315869017773065 0.1896472033626671
 0.22182768314102733 0.012013725111711095 -0.6120533657599281 0.17570048587491954 -0.04696457546430647 0.039260884758530346 -0.019876753414864317 -0.000307759952520821
 -0.020898104509212072 -0.00602636329616203
 0.21115940253193224 0.11398104205096021 -0.04696273198788485 0.03925404703345088 -0.5768581048690232 0.04561581658232978 -0.019280790573224033 -0.00945641891685183
 -0.017648473140208565 -0.015520166499208989
 -0.010568755563424069 0.1821730475819029 -0.019867200705061924 -0.00030730405795804136 -0.01927411977921186 -0.009451189200405505 -0.4978523029508259 0.24516232013175818
 0.02257798386451618 -0.03189877101789876
 -0.06339805852904558 0.1894820803711606 -0.020892662341385995 -0.006024575527294194 -0.017646679938876413 -0.01551621000028563 0.02258308664705301 -0.03190558476475292
 -0.5276297140884976 0.19957484142483195
1.13 0.2133859547547633 0.32543745090299947 0.2237342315419699 -0.010935030363604173 0.22425462381823189 0.0912173792210342 0.010550624053868 0.19028348917635343
 -0.04329195595575968 0.20226051437365464
 0.22361607261441416 -0.010674180950344283 -0.5976719176359727 0.19573488535442907 -0.041898128945596934 0.045974138588030976 -0.020213201357584032 0.0036826945626084527
 -0.022203275781101577 -0.0019219478758191362
 0.22404035128806246 0.09143233446447616 -0.04190310451831822 0.04597789251236994 -0.5726993437256154 0.0614334985619808 -0.02149510209180291 -0.005594542091895677
 -0.020898440138439934 -0.012000516992143863
 0.010322968494739534 0.19016609687774422 -0.02021130939560106 0.0036819030310389577 -0.021490873415696936 -0.005593508695166881 -0.4753725075990857 0.25350711811515503
 0.018825803808664467 -0.037360941932187336
 -0.04349026993282565 0.2020712275643036 -0.02220083684945735 -0.0019215540601544322 -0.0208943915672918 -0.011997452099854563 0.01882445342418246 -0.03736101074152432
 -0.506726150827791 0.20919988992092742
1.14 0.2169569906597301 0.3083936269331644 0.2229439100990294 -0.03350873934958193 0.23430642121895812 0.06738434152885947 0.03355242297593636 0.19572069026221356
 -0.02090556981091323 0.21268043644428397
 0.22288377209406915 -0.033227865325183605 -0.5824212017675435 0.2148068495114618 -0.03598080252374195 0.051827594010094784 -0.019715449437872182 0.007805217948079027
 -0.022670580366191236 0.002479224585762327
 0.23410230540255286 0.06761731192537582 -0.03597530127498471 0.05182437552822439 -0.567893500316616 0.07743977084783718 -0.02290180217478665 -0.001189980052494079
 -0.023418247949520746 -0.007761188838111502
 0.03331608105437253 0.19566306295025993 -0.01971416174537655 0.007806265991903113 -0.02290305496853226 -0.0011894532280317407 -0.45394393266406274 0.26003258276635166
 0.013832284875990333 -0.04246201137135887
 -0.02116621453233418 0.21259639505355757 -0.02267474220539828 0.0024783096796950114 -0.02342374659560988 -0.007765669281626536 0.013840700371674447 -0.04246938302627739
 -0.48651771135637295 0.216871011064697
1.15 0.2185404530963171 0.29289413060875347 0.21977351822756097 -0.05569228383547956 0.24135317640964277 0.04269743330468888 0.05831383184991558 0.198068172004997
 0.0036363270193039508 0.22049514964105324
 0.2197136023832131 -0.05542569540688968 -0.5664284161448416 0.23295179665638815 -0.029370541272766844 0.05673741650122347 -0.018335882992055633 0.011881119027586637
 -0.022245285760260646 0.0070004034400534855
 0.24114299738713244 0.04292470710040185 -0.029365792268008097 0.05672995056099708 -0.5623259483969181 0.09352750412523471 -0.02334944388609091 0.0035751792895867642
 -0.025043069493090604 -0.002974110694674604
 0.05807945511047217 0.19800129939374186 -0.018333379119924484 0.011881511626983548 -0.02335041484275987 0.0035768840353839534 -0.4335174776308202 0.26499610606983093
 0.007614642325599703 -0.04689936992139102
 0.0034164856353177567 0.22037068668760076 -0.022243875945708026 0.007002097913002037 -0.025045850229150835 -0.0029725318007224368 0.0076145557721789955 -0.04690181744939535
 -0.46727477077846846 0.22283610543418292
1.16 0.21875908552026685 0.2792553754632986 0.2142499863017368 -0.0772369757443111 0.24542303889136433 0.01754926988120609 0.08436484915992926 0.19687756725028516
 0.03005006134478798 0.22509591382624278
 0.21427337952935122 -0.07696705697014951 -0.5498810551019343 0.2503480990193034 -0.022226228253463258 0.06067270221300985 -0.016076898068065427 0.01571299331091872
 -0.020884434079867998 0.011453445646352742
 0.24530033380889676 0.017818379112746204 -0.022222286409473685 0.06066628902332407 -0.5561998448776099 0.10975016206640148 -0.022759717902351557 0.008483702121287478
 -0.025649988515529472 0.002170112903860515
 0.08413257887855752 0.19687012562431483 -0.01607180490328225 0.015713251853497864 -0.02275759478215443 0.00848662947321772 -0.4143555061263002 0.2687980061876897
 0.0002453271834063787 -0.050371504695998846
 0.029834084254381627 0.22504082497541103 -0.02088041466916199 0.011457738894686086 -0.025650876592290647 0.0021757697572652806 0.0002416932136991975 -0.05037619329224998
 -0.4491297115895274 0.22737198263333266
1.17 0.21829643677886715 0.26768477799633245 0.20673257758112182 -0.09782713331293756 0.24666133833187512 -0.0075306823394334305 0.11110656790164422 0.19177571251778924
 0.057841619757796094 0.2260780618044281
 0.2067385996169388 -0.09757312929375038 -0.532572773867899 0.2667425676529554 -0.014738795726004224 0.0636219714669595 -0.012985861671116733 0.01909763793944332
 -0.018603619236903266 0.015633393337119276
 0.24653756916754918 -0.007270244363956081 -0.01473914329709429 0.06361637443577407 -0.5492161822184536 0.12598225116818346 -0.021084889526398694 0.013286807257211647
 -0.025152796275421108 0.007436282224076225
 0.11083584515720349 0.19174582904921522 -0.012981764972525919 0.019092662294548986 -0.02108009935156153 0.013285263657053807 -0.39657901164718196 0.2718644743115968
 -0.008113901562609962 -0.05254206181443158
 0.057606196146303634 0.22599722295235786 -0.01859918349891098 0.015633587489000414 -0.025150378930026217 0.0074396180137566055 -0.008120215410344505 -0.052548797846745036
 -0.4324276776428908 0.23084336558184276
1.18 0.21788732423019377 0.25798798633896525 0.1973316342909342 -0.11733159594924551 0.2452456309191466 -0.03224725620700327 0.13770925106691526 0.18247910117001268
 0.08630410048972696 0.22310677400925025
 0.19735374853958063 -0.11711017556875723 -0.5146941054356097 0.282128743911646 -0.007008701858004527 0.06561633216547896 -0.009159911046729178 0.021836664258252425
 -0.015467588751406091 0.019337424719399053
 0.24515379402673632 -0.03201983686038014 -0.007007171112081312 0.06561132626881794 -0.5414558361863762 0.14203921697747504 -0.018354101417144317 0.017727248710457957
 -0.023542873556093177 0.012572139243745516
 0.13745115433719624 0.18252029995110677 -0.009161631693467339 0.02183270580092894 -0.018355817917208226 0.017723702701602433 -0.37985936586571606 0.2743537720106752
 -0.017167776915425235 -0.05315349139502397
 0.0860712235969902 0.22307573685685397 -0.015466297799621442 0.019336486730283486 -0.023543218678581227 0.012572385328608458 -0.017176780119286486 -0.05315433360408814
 -0.41696501523881385 0.23359858723589816
1.19 0.2181435751315421 0.24991773824344285 0.18633650414837571 -0.1356972437206776 0.24142121580132808 -0.05630654556387738 0.1634533170257339 0.16905773977908567
 0.1147683162851348 0.21602771803631027
 0.1863241776398224 -0.13541319537107302 -0.496286418610453 0.2965610772028037 0.0008493569951357425 0.0666717166385977 -0.004754323287453096 0.023772417153490932
 -0.011585715159131881 0.022381779500372373
 0.24125369511608732 -0.05604626997484432 0.0008556215482248859 0.06666309321804464 -0.5329624616153964 0.1578955135631358 -0.014669824700210082 0.021555636204095528
 -0.02085923296324016 0.017318603508012956
 0.16313241151873528 0.16908365651739135 -0.004756060832868626 0.023769580523995668 -0.014674297786608649 0.021553457119043485 -0.3640445720446678 0.27668506105129587
 -0.02656368597627743 -0.051994794183940714
 0.11447438127738409 0.21598427426140884 -0.011586566618914341 0.022382703839758388 -0.020864792847000904 0.017319386904321353 -0.02657180341804796 -0.05200040257188298
 -0.4026451096341214 0.23603710628473762
1.2 0.2195413821342661 0.24287728679405926 0.1738542989645187 -0.1527613766027418 0.2352645666845892 -0.07949866574860338 0.18748482578591202 0.15156927272881962
 0.14246415496939097 0.20480316766669504
 0.17393085295599361 -0.15248859029960293 -0.4773400350356364 0.3099582182549375 0.008766365975350042 0.06678504483902097 4.9255802239847986e-05 0.024777022338933318
 -0.007110670617652379 0.02461626519735807
 0.23518591662346108 -0.07919911230775324 0.008769148254867583 0.06677402525322441 -0.5236805411163756 0.1734705829140145 -0.010182130499720991 0.02455968227396695
 -0.017211497913425418 0.021448059630271576
 0.1872192668728453 0.15169638256834192 4.9287587168223674e-05 0.024777131244192566 -0.010185270300049893 0.024563021489598002 -0.3489066803680447 0.27875040816111235
 -0.03591012814232144 -0.048985788266968366
 0.14216634618127916 0.20483663146442158 -0.007109209123698872 0.02461556446767807 -0.017213795551907746 0.02145026170033913 -0.0359107084556958 -0.048981860865293235
 -0.3892403240016865 0.23823556684161934
1.21 0.22217522597471417 0.2363109236060129 0.1601545292469436 -0.1685405799918733 0.22717003634226438 -0.1017030424258532 0.20917189901387806 0.13044352000812584
 0.16874222499023414 0.1897069003939136
 0.16027482679643762 -0.16825102164635478 -0.4578284047890865 0.3223748158382845 0.016644831635407913 0.06597590113159064 0.005034668380271886 0.024775591574460996
 -0.002228355067450046 0.025926597316938176
 0.2271306581235311 -0.10138025563215554 0.016650211559316338 0.06596555261206513 -0.5135987504949733 0.18888428510414115 -0.005096972296647198 0.026581048915208558
 -0.012760536694607152 0.02477039369231083
 0.2089499378588349 0.1305949917460735 0.005041040791236708 0.02477706487099518 -0.005094942331660827 0.02658792737515229 -0.3345401696836823 0.28075754512464063
 -0.04478580397173244 -0.04413987439894077
 0.16843992366967056 0.18973351760961119 -0.002220889257917228 0.025922876784061806 -0.0127560832209428 0.02477146926726828 -0.044775209043830734 -0.044126053934571016
 -0.3768669784711236 0.24036007412317464
1.22 0.2262263091126156 0.2295572232037952 0.14539392523334832 -0.18309855519827722 0.21736824546286504 -0.12284652494585308 0.22797679903132442 0.10607659923908191
 0.19296618213587272 0.17093047011763657
 0.1455583898468261 -0.18286558267738803 -0.4378444689367172 0.33368779326863124 0.024446156945817924 0.06428927842728187 0.010000961427038418 0.023756383852490504
 0.002874587118475688 0.02625143498693946
 0.21737178302960616 -0.12250135761635218 0.024435616246768585 0.06426937114335103 -0.5026068009930399 0.20391302727923785 0.0003583697431993692 0.02751706424190868
 -0.007695659075713561 0.02713123959114087
 0.22773740524315855 0.10627364503398551 0.010000445030784328 0.02375129229681419 0.00036113109341469785 0.02752074954985228 -0.3205439390050609 0.28281988558442384
 -0.0527929611272358 -0.03755565436063556
 0.19266253528191543 0.17100814068732761 0.0028779064802205994 0.026242056391118162 -0.007690012656323653 0.02713242039034926 -0.05278902710301518 -0.03754447119294405
 -0.36515637228436526 0.24254161727494114
1.23 0.23135197503032073 0.22197324678576885 0.12978065534282116 -0.19642997559252073 0.20601142843332848 -0.14284193632840314 0.24327865615552627 0.07914073589609624
 0.21458340363471748 0.14901276242248704
 0.12992210005524754 -0.19620942850602544 -0.4174508339914078 0.343687910279162 0.032017280765663444 0.0616925562820701 0.014692284532232315 0.0217391780315715
 0.007962153821550083 0.025566185345285455
 0.20606487250796018 -0.1425716717111799 0.03201827479605759 0.06169292573646685 -0.49068425207563665 0.21833067326429242 0.005920163610708169 0.027305833376730947
 -0.002248570595158991 0.028432475722323207
 0.24308210284863602 0.07936030503302692 0.014691281740142328 0.021739391242807077 0.005918741226742057 0.02730539918528812 -0.3067428345276191 0.2848011425304264
 -0.059554529663095955 -0.029494881814269753
 0.2142700324852865 0.1491292994161572 0.007959071110632574 0.0255592786323426 -0.0022491502372830913 0.028424081409142463 -0.059538786128968145 -0.029486863417583484
 -0.35399791583398715 0.24490335803075072
1.24 0.2371525194997036 0.21308265401920445 0.11325161986603006 -0.20872402230946505 0.193259862879837 -0.16184993441904488 0.25487742990043505 0.050187845804912465
 0.233207626614596 0.12438813699753741
 0.11341512651201485 -0.20849802227333125 -0.39679841007788463 0.35239561410817843 0.03935050037273382 0.0582223433734365 0.01893894857003229 0.018812282553245317
 0.012852155602522288 0.02390764101188986
 0.19333173755750563 -0.16155059665954913 0.039347091570401616 0.058221621086591 -0.4780236207489994 0.2320813972712648 0.01134806785226044 0.025963829401225977
 0.003351248681367313 0.0286241760900559
 0.2547244668454651 0.05044425147788462 0.018940810257426128 0.018814998064981783 0.011350144238092285 0.025967772348740634 -0.29303006033104567 0.2866817389526206
 -0.0648112628920134 -0.020233897225340348
 0.232957473257235 0.12455869404371747 0.012852914396305695 0.023906514277395718 0.003353543231678276 0.028624265813954556 -0.06480326056533425 -0.02022661269020243
 -0.3430710182758692 0.24736789554732874
1.25 0.2431270534603515 0.20264356628959412 0.09582602838318494 -0.21991538957128032 0.17918107904734124 -0.17984696542285933 0.2625293761463295 0.019862427865366433
 0.24855409375027873 0.09761601145496836
 0.09598519484398187 -0.21971122201292018 -0.3760512871048738 0.3596905931806501 0.046327894704169016 0.0538631973775408 0.022558211345093768 0.01507893937208287
 0.017356953466403622 0.021335198432755425
 0.17926221667138115 -0.17958670704422758 0.04632847716473394 0.05386405903132493 -0.46460818159466777 0.24492797292978216 0.016420081431624278 0.023556227940287177
 0.008884895815011095 0.027725249030426193
 0.2623866354203445 0.02009066812275067 0.02255976076719122 0.015078572579973549 0.016421550945856907 0.023556093348085744 -0.2793376933157315 0.2882694632065946
 -0.06835013860587363 -0.010103649063111581
 0.2483385429896897 0.0977978164340068 0.017357590417713065 0.02133513171401298 0.008885467203073988 0.027725010654575926 -0.06834804039665145 -0.010104978415060084
 -0.33236177762044156 0.24993450527358985
1.26 0.24872917384620197 0.19059179728117176 0.07741814026555376 -0.23011759146263594 0.1637368896718453 -0.1969374407507112 0.26621674359155195 -0.011285809737470011
 0.26048985914183065 0.0691247735427933
 0.07759149300839274 -0.22993493199618098 -0.3553041228169479 0.3658053291934452 0.05287821755530066 0.048638017968849034 0.025428293734301204 0.010683179629988505
 0.021334562829040928 0.017947375819287594
 0.16383631754048672 -0.19671341099530443 0.05288430758705165 0.04863786413120115 -0.450712327006306 0.256989643205535 0.020947713828401125 0.020189161659975693
 0.014159488390004346 0.02578480728323069
 0.26607771516520556 -0.011024157886313916 0.025425869353588815 0.01068343135229169 0.020942766535387985 0.02018849094866314 -0.26569576046476306 0.2894302390808424
 -0.07008471710700791 0.0005256763607857958
 0.26026721664911306 0.06930220379065619 0.021332708733773905 0.017943327664127918 0.014156822769677774 0.025779381512407513 -0.0700799722454807 0.0005334043971222624
 -0.32177795181329216 0.2524261306320836
1.27 0.253394110875201 0.17700468256537366 0.057924946899215166 -0.2391221085316719 0.14683545067684278 -0.2130589475558334 0.26589174808605703 -0.04264517198042055
 0.26884728021920967 0.0394061030631594
 0.05811784310706786 -0.23896669214950791 -0.3345419210511537 0.370468920359893 0.058826054222796256 0.04253422779558998 0.027418016686704585 0.005781141786845764
 0.024629288420980347 0.013849526667817717
 0.14696158793847486 -0.21285300859626088 0.05883148729379201 0.04253298394827465 -0.4360914864657821 0.268116570869532 0.024747937054191052 0.015993001038241726
 0.018979707733320597 0.02287427348680187
 0.26578189735537966 -0.04239057629659347 0.027414878418527206 0.00577928617892948 0.024743378069419036 0.015990617480999718 -0.252067210984795 0.2900331707886846
 -0.06995641952042064 0.011291829616508707
 0.26864968018257496 0.03959469736284464 0.024626254977254344 0.013843983905679534 0.018976533586543855 0.022867625568535974 -0.06995090316188601 0.011296443561653382
 -0.3112640945688133 0.25480508616525105
1.28 0.25659322977478655 0.16206425019930096 0.03734969436733946 -0.24699897803434853 0.1284660625839984 -0.22818755622285752 0.26163999818451034 -0.07372349923226838
 0.27357114566653346 0.008957961915577978