! AWR Design Environment (19377) Sat Dec 27 02:21:50 2025
! Document = 'EM_Extract_4_way'
! nPorts: 5, nXvals: 401
!
! Created with skrf 1.8.0 (http://scikit-rf.org).
# GHz S RI R 50.0 
!freq ReS11 ImS11 ReS12 ImS12 ReS13 ImS13
! ReS14 ImS14 ReS15 ImS15
! ReS21 ImS21 ReS22 ImS22 ReS23 ImS23
! ReS24 ImS24 ReS25 ImS25
! ReS31 ImS31 ReS32 ImS32 ReS33 ImS33
! ReS34 ImS34 ReS35 ImS35
! ReS41 ImS41 ReS42 ImS42 ReS43 ImS43
! ReS44 ImS44 ReS45 ImS45
! ReS51 ImS51 ReS52 ImS52 ReS53 ImS53
! ReS54 ImS54 ReS55 ImS55
!
1.0 0.05751590041201981 0.5159137422515898 0.18107350643252926 -0.2384307739502273 0.274771093591462 0.11292067286190591 -0.06959094391057147 0.17594805087871848
 -0.13289205810194638 0.00583874147097806
 0.18062031444624566 -0.2377484677911577 0.26641326939297577 0.1258456126909267 0.09931090364859468 0.044239242892397 -0.02146588342938621 0.02841120699272094
 -0.02439080068418334 -0.00562947514268097
 0.2740523808028425 0.11271389042391668 0.09932905043710293 0.044259610125052876 -0.1558745399675503 0.04242910892576505 -0.03272066630979274 -0.013360455829581327
 -0.0008131847062113352 -0.024835399522898538
 -0.06946791379622591 0.1754203127811423 -0.02147075573595221 0.02840294444010331 -0.03270787861765025 -0.013360802106479788 -0.6168718243274997 -0.12164242756674644
 0.029233834208789566 -0.008211278280390843
 -0.13250247946005717 0.005763745684010853 -0.024383936694074786 -0.0056346374935855046 -0.0008088600980216254 -0.02482436843151521 0.02923049151526009 -0.008209910601548902
 -0.7251467509161065 -0.06404013078509216
1.01 0.0818792687168848 0.5037709080309235 0.16311858069741314 -0.2549488047672945 0.28864037385897084 0.08666477344644269 -0.051655074789277736 0.19059986111229943
 -0.13578874687083334 0.02026857455088417
 0.16274278131615877 -0.25414789705637353 0.27512600043189955 0.11323579593821997 0.10419658625452884 0.033437471028512356 -0.01687043708358968 0.03248480454988453
 -0.025389499787232688 -0.001691873430065153
 0.28782168887125664 0.08653896694916147 0.10421497585029067 0.033443494767283324 -0.15082483283641052 0.0621433048667106 -0.03571681723591707 -0.0072980160591667636
 -0.005310092362967171 -0.024783664150304238
 -0.05159521303458896 0.19009445518166804 -0.0168762218501203 0.03249622210125356 -0.03572302210078312 -0.0072991137261496745 -0.6105063370144744 -0.10857077895521867
 0.029336178298955146 -0.013099922821377761
 -0.13544828751421248 0.02016732214926413 -0.025398100924074754 -0.001692010238384747 -0.005311396418239447 -0.02478755206992536 0.02933564758642355 -0.013100164219923105
 -0.7164260418707572 -0.03528722854429154
1.02 0.1045176361025789 0.49031689665548567 0.14351392541689495 -0.2700235581659896 0.29957721501057233 0.05867026379076484 -0.03092836571946318 0.20328604127636882
 -0.13722663761179818 0.035396597773502535
 0.1433100352513109 -0.2691266200741208 0.2827529388996532 0.09988477549022337 0.10794356973691549 0.022115256064887283 -0.011429974763260166 0.035767255447285075
 -0.025761363275870423 0.0024213437718612605
 0.29872490554348197 0.058692559833237554 0.10796670935274016 0.022099728697184618 -0.1434768515159411 0.08121489074319314 -0.03748670210840357 -0.0005246948565258546
 -0.009804219559837712 -0.02390727864038915
 -0.030921097071293382 0.2027111789016784 -0.011417071390273752 0.03577665601512839 -0.03748518742937567 -0.000516301041835717 -0.6052160746285347 -0.0963666205645513
 0.028650597424798047 -0.018260207824303723
 -0.13685870880254306 0.03524626374416247 -0.0257635681279848 0.0024322162982456782 -0.009809199729029857 -0.023903749483784396 0.028650194430597468 -0.018260226618807922
 -0.706200184012823 -0.007194444366411092
1.03 0.12540688442055523 0.47575531002093685 0.12249502321640776 -0.2833376834699261 0.3073883684828799 0.029398593037624716 -0.007697943131584669 0.21335882239983753
 -0.1369736783980052 0.051010329141527026
 0.12244962408464102 -0.28245074883260063 0.28913585141307147 0.08590153208197185 0.11046818482645135 0.01043052263403596 -0.005298170841227166 0.03804131100368104
 -0.025447615912255802 0.006599742800500512
 0.3064483497313828 0.029603029079844287 0.11043868025953976 0.01042147098165932 -0.1339741117687717 0.09938385235706952 -0.03782592577508074 0.006666662917030388
 -0.014117386430258665 -0.022184782530389385
 -0.007782288450801115 0.21272266602451498 -0.005277570663438603 0.03803374808733374 -0.03782306842027763 0.00668363007491319 -0.600825014454257 -0.08465613085911612
 0.027072721032311505 -0.02352892984799932
 -0.136572404262395 0.05077313123536143 -0.025433365318203612 0.006608086402271021 -0.014123538551326354 -0.022175485998902896 0.02706938155271883 -0.023523143320059992
 -0.694206724981852 0.020051937220048922
1.04 0.14464249695579967 0.46028364478795336 0.10014251440388773 -0.2949248812891414 0.31186767868730164 -0.0007319760493080859 0.017624653020880458 0.22034850644123272
 -0.13499886854018475 0.06692642347023359
 0.10025857800242352 -0.29404741740634266 0.29428993503130024 0.07133981749696164 0.11171771298476235 -0.0015133258748499575 0.0013299796592996399 0.0391616782395494
 -0.024447394607873322 0.010740308893392296
 0.3110785127027802 -0.0003166834507577834 0.11171942215462266 -0.0015058426005350738 -0.12241064418061091 0.11629986310776981 -0.03666612025432071 0.01395609535002901
 -0.018106582238172554 -0.019679593447217623
 0.01731637084496542 0.21963174467335822 0.0013338660190522918 0.03913026973388914 -0.0366336430767082 0.01395185444577711 -0.5976572289337024 -0.0731077692658725
 0.024567896425833152 -0.028736697079276532
 -0.134656033943141 0.0665730751364536 -0.024432538806169884 0.010738681835593284 -0.018101282249339223 -0.019664546602663518 0.024573187373924166 -0.028745309315542446
 -0.680640938731688 0.04623218571398715
1.05 0.162312615350686 0.4441131434535703 0.07667751448119106 -0.30447820999158476 0.31311095057077554 -0.03118096805404069 0.0444645138101999 0.22368832509488637
 -0.13121663113660606 0.08296523134743751
 0.07691796836848838 -0.3037278460598128 0.29796630337231156 0.05653596519662389 0.11170634309677922 -0.013525932473527649 0.008199389113133065 0.03898396365321369
 -0.02275763783149349 0.014730208888470979
 0.3124725282855748 -0.030658732512704505 0.11170211638066017 -0.01351130281513521 -0.10915421265177118 0.13170657772090943 -0.03396019150783187 0.020976855359495623
 -0.02162573702679423 -0.016448278652977644
 0.04397909806794777 0.22318895507722217 0.008182754262925305 0.03896985256089279 -0.03395172912221552 0.020961718025594545 -0.5952901848216317 -0.06130013189796567
 0.02111206159195042 -0.033742018300396914
 -0.13102627344364673 0.08256396365896128 -0.022754096841984553 0.014721330327306053 -0.021619354688687285 -0.01644613630573156 0.02111067323897897 -0.03374969421978305
 -0.6655358334342422 0.0712003908608993
1.06 0.1785443998561398 0.4272920967709526 0.05234143887219056 -0.312043300907519 0.3111065319770324 -0.061642005332524154 0.07221661040034481 0.22335407562383575
 -0.12566432655733056 0.09898546570643235
 0.0527369436153452 -0.31134507679961343 0.3004085510222237 0.041528856884084676 0.11041085507328018 -0.02545413578326281 0.015023628575162207 0.037506671433784465
 -0.02041802470018216 0.018457481255467974
 0.3106231270231312 -0.061042865130665785 0.11042166556845469 -0.02546142414760784 -0.09438333189725157 0.14538379675116084 -0.029824370153916306 0.0274000597787365
 -0.0245591028305365 -0.012588348053583762
 0.07168425550356598 0.2230404942320951 0.015018042429002332 0.03750895362710564 -0.029826418702116404 0.027391461012739277 -0.5938581426673156 -0.04918612633865588
 0.01670996136291608 -0.038381601796716076
 -0.12555775699833915 0.0985830619977063 -0.020415141359452372 0.0184561309269334 -0.024553655832328602 -0.012585784966476507 0.016701064479060636 -0.038380377039415534
 -0.6492780517554398 0.09469270441827465
1.07 0.19340361071646653 0.4097922639362422 0.027315988520939603 -0.31758851267216914 0.3059499434121094 -0.09175492725201534 0.10026087021309477 0.21910256292578018
 -0.11818376704383077 0.1147500542649622
 0.027885785905385388 -0.3169977231433393 0.3014452884413046 0.026646778669911355 0.10789890198380901 -0.03718840333605539 0.02154724512547017 0.03474737719931067
 -0.017452544351696554 0.021818931343512614
 0.30565114721350334 -0.09107339911514138 0.10791265132887373 -0.037213106594994466 -0.07844103036441141 0.15711857077028654 -0.02440709993813573 0.032910838730687855
 -0.026781668952429023 -0.008197246356972355
 0.0997634438004977 0.21893050744226247 0.021563756957476463 0.03474602321279775 -0.024400681217155395 0.032915613820976845 -0.5929850594112325 -0.03623011315783102
 0.011376836614810173 -0.04242530262796645
 -0.11818174305572857 0.11438235669247766 -0.01744721212091438 0.021827818426812074 -0.026781684804071428 -0.008191911316366754 0.01137675382487175 -0.04242280079646747
 -0.6316552969860457 0.11660927845525267
1.08 0.2067949385947724 0.3916349790660373 0.0018142112567686303 -0.3209685258844422 0.29776132377527836 -0.12115216851662385 0.1279992455749452 0.2109433148900407
 -0.10887477308164605 0.13010672441545357
 0.0024402533990272547 -0.3205999460680709 0.3012348503206274 0.011845928528304742 0.10417951594819196 -0.04860059183921278 0.02752633333926697 0.030775713836026106
 -0.013924790790385569 0.02472510982272098
 0.2975925775363753 -0.12046224020114184 0.10415492364386358 -0.048610261767797806 -0.061564954264043945 0.16699873625320494 -0.017928072436420518 0.03725427072423147
 -0.028216306922304195 -0.003412123227426141
 0.12754254480714544 0.2108576282041622 0.027540083889606097 0.030756710420934356 -0.017914270953703477 0.03726262581973905 -0.5925230389055686 -0.022449276880186105
 0.005231784255015701 -0.04572092301835187
 -0.10891525722295607 0.12977681330966412 -0.013908966998821954 0.024727436274511152 -0.028216296386896458 -0.003401829722147753 0.00523268079437351 -0.045717059380544385
 -0.6132329562912023 0.13689592312201632
1.09 0.21868677660040092 0.3728791609892873 -0.024058134865207907 -0.32228031970260523 0.2866885474447568 -0.14958284513632092 0.1548533336507585 0.19891874062039272
 -0.09761506143580322 0.14484572482141017
 -0.02338305169799761 -0.3221454562879918 0.2997742745238186 -0.0027231694061139724 0.09931516091059886 -0.05957225691557378 0.03272976683618804 0.02571603442226711
 -0.009886771807235857 0.027077702775994198
 0.286725456379901 -0.1488889697844986 0.09927763393340772 -0.05956274200347682 -0.0439967650500138 0.1749222808486575 -0.010668543637504076 0.04024316567907336
 -0.028794632017947814 0.0016353747365190953
 0.1543460308041849 0.19895259295116752 0.03272123770273809 0.025689183147903902 -0.010654536724911474 0.04023655970568311 -0.5920264723132671 -0.007575234815533418
 -0.0016174157429635725 -0.04809135484213418
 -0.09774492927592528 0.14452273551120426 -0.009870497420747781 0.02706684642599013 -0.028787587872648658 0.0016437867782728003 -0.0016184218628355555 -0.04809191243411725
 -0.5938499627989784 0.15546212981708593
1.1 0.22896155235710447 0.35353945644510704 -0.050107555712618816 -0.3215378576819285 0.27287611527820343 -0.17675703737334558 0.18017773767655387 0.18314716472495282
 -0.08445883484474875 0.15874930367659854
 -0.04955105460876762 -0.32152000707285 0.2969724541406075 -0.016990364185450333 0.09330479229312028 -0.06999312396796929 0.036943051225867725 0.019711942395088528
 -0.005414610010402684 0.02878641561174519
 0.27307365807051526 -0.17618676222769447 0.09330154196029572 -0.06997297307618025 -0.025883179031958883 0.1808098979062514 -0.0029138814665631177 0.04172773851342684
 -0.028468075775322253 0.006800360950366502
 0.17971901305605392 0.18334070623165571 0.03692598772618659 0.019708559326739428 -0.002913052825921607 0.04171640645044196 -0.5911725939246019 0.0084350337995652
 -0.009033051912043424 -0.049405923980173905
 -0.08463628198699957 0.15848870302849544 -0.005408207748176369 0.028772753282033246 -0.028455759292094398 0.006804943383808498 -0.009044450020020817 -0.04939866764190328
 -0.5736395415400954 0.172222553833677
1.11 0.23753901895429622 0.33366709226495905 -0.07625992741436778 -0.31865985126889734 0.25648265050636826 -0.2025480943286902 0.2034985184597153 0.16403319488939888
 -0.06936260678466528 0.1716263379171079
 -0.0757383707071664 -0.3187572816408966 0.292902671863739 -0.030609714802568896 0.08624637802934983 -0.07974250113429572 0.04001041002333051 0.013010705064240614
 -0.0006083456814707089 0.02977311494550679
 0.25684520293483415 -0.20212828360430513 0.08626605445623489 -0.07974819716413702 -0.007597760945514871 0.18453962342568525 0.0050002662147106015 0.04167358103013758
 -0.027213992767860344 0.011936461995316009
 0.2031434396014779 0.1642920417133818 0.03999612074921415 0.013006362556675078 0.0050006791090675 0.041651940418168845 -0.5898053933545673 0.02542080418860446
 -0.016861197345328642 -0.04954465172703571
 -0.06958527809563295 0.17142922291306997 -0.0006050233583064265 0.02975961715428113 -0.02719520497062021 0.01193407274218314 -0.016864911474816162 -0.049537827487796164
 -0.5530686117319299 0.18702183207275527
1.12 0.2441904708276566 0.31350044389499515 -0.10235979031678902 -0.3137301573844029 0.2377048380105581 -0.22671779164491299 0.22427292538044488 0.14178731979300424
 -0.05235307264671407 0.18313182652142687
 -0.10187687210670836 -0.31382459093200005 0.2877723573146547 -0.04341579292344306 0.07821894827519162 -0.08872494904673656 0.04180711229441341 0.005822033307708866
 0.00442327307900929 0.029957142569765338
 0.23802560102314194 -0.22637203467918773 0.0782276628944146 -0.08874280519823577 0.010519945078979033 0.1862138745685833 0.012755647809057993 0.04004347639249695
 -0.025003748856950912 0.016861093069283396
 0.22401084345071567 0.14208416078009026 0.041804840846626945 0.00582144327572429 0.012751351087071507 0.04003526700911031 -0.5872654793230249 0.043219058766848194
 -0.02486441226744042 -0.04837796939504502
 -0.052587718198383 0.1829844421280589 0.004424753571893766 0.029950076883750412 -0.024993468819833317 0.016855539152566035 -0.02486390162281881 -0.048367928743450125
 -0.5323403297813374 0.19991042174689108
1.13 0.24883336422803745 0.29323649361899046 -0.12831380652792201 -0.306630963421729 0.21663217631053316 -0.24909543792096925 0.24214558186319546 0.11688874307200371
 -0.033567937168812415 0.19298144348706242
 -0.12782849158844342 -0.30674319968136116 0.2818029740772649 -0.055435754626383366 0.06928103785058912 -0.09686034770643336 0.04228516375433372 -0.0015991118206972784
 0.009544089870088495 0.029291031501132627
 0.21691475199363017 -0.24873346377323416 0.0692692613360854 -0.09686676590783577 0.028212450772966587 0.18607212163815573 0.0200353710807494 0.03694638436688671
 -0.021886451525912263 0.021394482637922062
 0.24189295243120038 0.11711192067976034 0.04227476826491907 -0.0016123127906968809 0.020038695254573885 0.03693406389616075 -0.5835244498399697 0.06155348076560204
 -0.03279951952032259 -0.04586277908216044
 -0.0337625247104502 0.192809577230077 0.009550046024901853 0.02927474754606695 -0.02187201711929691 0.02139046707060995 -0.03279388520891641 -0.04585231939869034
 -0.511525649371477 0.21081659038653694
1.14 0.2513544729367948 0.2731736999603173 -0.15394773736520212 -0.297283578370444 0.19338691002138333 -0.26942892392590656 0.25679896881639347 0.0897568680876471
 -0.013070160587487894 0.20084647303002962
 -0.15356018253051648 -0.29749403322838525 0.2749839367509497 -0.06652507606967277 0.059486365227591896 -0.10406918504045982 0.041432659152778495 -0.009024430985757148
 0.014629270298515787 0.027730686320253998
 0.19369753290839042 -0.2691151858993531 0.059471157192422706 -0.10404359913532313 0.0453303881689624 0.18412775452911687 0.026579548613264246 0.03252300438655583
 -0.017914861388158357 0.025377384297169285
 0.25655697332439154 0.09000360681449543 0.041407680676581585 -0.009026219307075097 0.0265763671213884 0.032508332869437176 -0.5785090398739147 0.080131422536363
 -0.0404319665612639 -0.04202010639797383
 -0.013318117758127608 0.20077546321082504 0.014626696257904729 0.027721479680555737 -0.017912442197192173 0.025377199597240552 -0.04043853299383875 -0.04203553212553731
 -0.491027070455023 0.21984606859856817
1.15 0.2518452934381288 0.2536317993416537 -0.1791601968271516 -0.28580286000214655 0.16827177559778086 -0.2875830658253382 0.2679011623200535 0.06092979095229555
 0.008842388237342505 0.2065826645989733
 -0.17879955250094856 -0.28593533481360234 0.267476925150813 -0.07675475468112958 0.048946101124705925 -0.11024070284594431 0.03925100551575618 -0.01618980527376879
 0.01951212572774856 0.025278003140337173
 0.1685430443671077 -0.28730411739221395 0.04894358934861735 -0.11023174640518471 0.06167521743636334 0.18063606090256795 0.03213684251277981 0.026953641584239487
 -0.013205091001979806 0.028656590012072346
 0.2676534829649938 0.06117282078827478 0.03923258982463631 -0.016184575710717727 0.03212658708850959 0.0269416120868593 -0.5720974126061885 0.09868173616128001
 -0.04752666883925583 -0.036923012134343194
 0.00863326139342076 0.2064714221551682 0.01950857904626801 0.025266788805619087 -0.013197583153599667 0.028650684335819927 -0.04753429745434281 -0.03692320960357048
 -0.4710765154033586 0.22711935663601257
1.16 0.2504062130588659 0.2348937556388599 -0.20360158901960196 -0.27192034401820864 0.14131199330393834 -0.3032191294034873 0.2753170143002579 0.03084791468403064
 0.03203357809596165 0.2098173254951996
 -0.20330628621680233 -0.2721074514510476 0.2591755384571653 -0.0860661934218136 0.03772937367735536 -0.11522227770442646 0.03581604001361086 -0.02286369352407176
 0.024028612241427647 0.02192994696899853
 0.14165377909997606 -0.3030525945151134 0.0377443684000535 -0.11522509882570796 0.0772796668741519 0.17562413203123423 0.03651718884807044 0.020453759474555043
 -0.00785982046588839 0.031072783854674872
 0.2751667900695064 0.03114512182534325 0.035806196501671654 -0.02285232518507456 0.03650278133908872 0.020445239285721537 -0.5645366810980165 0.11710257482152499
 -0.05388614844968845 -0.030634386422399705
 0.03183078695987739 0.20976963932333306 0.02402425714650955 0.02192090182723912 -0.00785009099869207 0.03106377545960646 -0.05389561818606581 -0.03062436419730637
 -0.45181556911467763 0.23277440984448625
1.17 0.24707860622686273 0.21722622459519716 -0.22719599610045255 -0.255783892735542 0.11291503729237343 -0.316454356848871 0.2790367002373433 0.00013227574922993488
 0.05624948065907486 0.21032704376748074
 -0.2268521647277064 -0.25595634491016445 0.25028692544323583 -0.09387093904130255 0.025998887506465205 -0.11901922464747412 0.03125396083113381 -0.028821437570783114
 0.028010595391322616 0.017726976639493783
 0.11319499159899114 -0.3162034949453903 0.025989442278762195 -0.11900473584887464 0.09166021078484657 0.16914809940028044 0.039585070173158154 0.0132888313663308
 -0.002027473567285257 0.03250121102404256
 0.27888769216187403 0.0004222816724773655 0.031245027787700896 -0.02881587960494571 0.03958064780326848 0.01328752386360242 -0.55561058718679 0.13512165081709096
 -0.059288402685681904 -0.023268851689444932
 0.056029031500804974 0.2102540102446659 0.02800576676648405 0.017716294969874802 -0.002022461812201477 0.03249621558711745 -0.059288746353708816 -0.02325885411787762
 -0.4336466813359404 0.2370345770716112
1.18 0.24218797658909616 0.20088310556947253 -0.2495541733489624 -0.2374405655885053 0.08317142499233338 -0.3268312419435099 0.27904641804208974 -0.030786319460599752
 0.0810636496866555 0.2078497742777213
 -0.24923713244830617 -0.2376630145538433 0.24127735916298065 -0.10060141258112161 0.013870200802146003 -0.12149493223738271 0.02572279665661565 -0.0338883403818393
 0.031282097107865295 0.012764053282767885
 0.08347885015812496 -0.3266140918544309 0.013860460655196484 -0.12147418031196235 0.10476048687956285 0.16161767445326639 0.041259269470275584 0.005720671244379819
 0.004093398243699088 0.032831064238764335
 0.27893682656316693 -0.030530437840027964 0.02570784256430234 -0.03388544955539232 0.04125662179624798 0.005712775178426998 -0.5455170641431752 0.1524386936817483
 -0.06356230519341487 -0.014998437555857584
 0.080846385592394 0.2078214291209286 0.031277324131199824 0.012753314005034195 0.004099043530852287 0.032827918206404134 -0.06356333691508222 -0.014998543979798627
 -0.4164799669438131 0.24013760362737785
1.19 0.23591385229575856 0.18616413234400514 -0.2705696034535912 -0.21692563216112595 0.052392830082278505 -0.3344373351998442 0.275418059136311 -0.06143861066621709
 0.10611537139697708 0.20222130958536494
 -0.27018259004775547 -0.21711305479848494 0.2323033249509192 -0.1060250646075855 0.0014604825294725913 -0.12262892962422493 0.019380286474545896 -0.03790288556703658
 0.03367859337885609 0.007142443793030839
 0.05273954557323572 -0.3341527261689823 0.001463030783536956 -0.12261178819202032 0.11644001515480358 0.1532654410523615 0.04150821702921905 -0.0019839115698769465
 0.010299247598686008 0.03199734731986439
 0.27522451768261624 -0.06114419087044977 0.019363730835595665 -0.03789392758135097 0.041498339161347556 -0.001994794564171774 -0.5344427443376305 0.16893348214559264
 -0.06652708161135325 -0.0060226284319623855
 0.10584117165227253 0.2021793534991377 0.03367326754245071 0.007136324549563373 0.010304001422867418 0.03199409743487315 -0.06653815114476587 -0.0060309258082067415
 -0.4003697064559747 0.2424052384503937
1.2 0.22863694215669364 0.17313055896166743 -0.2898750460986521 -0.19435392765185763 0.0209033175395804 -0.338926392254584 0.2680688362480552 -0.0913394026375242
 0.13089983553020554 0.19328676034653347
 -0.2895317305186704 -0.19459611723417153 0.22340329500479292 -0.1105212619856562 -0.011027864602174777 -0.12235769833568723 0.012431929901595043 -0.04072710853466151
 0.03506047826099448 0.0010323768016498869
 0.021291021020734383 -0.3388027453980914 -0.011024774521894376 -0.12237494430672403 0.1268675334372368 0.14447232382541808 0.04032635774575388 -0.009557883308778528
 0.016355722097471725 0.02997263721834485
 0.2679800066314946 -0.09099756214270828 0.012425387071364796 -0.04071771704230711 0.04030934850093082 -0.009558970921980416 -0.522503075656201 0.1844733406238535
 -0.06807297946330389 0.00343880765640555
 0.13062080391679307 0.1933145881750047 0.035055601536764035 0.0010298633512668234 0.016354317324909686 0.029962566770208855 -0.06808084219053247 0.003438177982264496
 -0.3852559771954959 0.24390093031157253
1.21 0.2204863894658875 0.16194149396040958 -0.3072920842468618 -0.1698592605832881 -0.011015161018449437 -0.34040024429933474 0.2573480013696975 -0.1200604770067274
 0.15497999986381886 0.1811039299140277
 -0.30700710704325895 -0.17012682108786675 0.21445897061161398 -0.11389869205149376 -0.023453566538665968 -0.1206815630336721 0.005106625986449343 -0.04228661886415608
 0.03532079895917313 -0.005377996710878215
 -0.010600706198025577 -0.34027000234459553 -0.023434261462489444 -0.12067532606162862 0.13607312604566665 0.13507374819433657 0.037778103740442 -0.016731406219998194
 0.02201694100351993 0.026774754263290162
 0.25730881576416775 -0.11969154186898119 0.005107456268402605 -0.04227224546123996 0.03776713158980572 -0.016730370949955897 -0.509867300438851 0.19918506460377358
 -0.0681377678547236 0.013143498446230875
 0.1546957639108211 0.18112347866975154 0.03530713865301694 -0.00537952713997692 0.022017057847019746 0.02676156060043673 -0.06813301886114026 0.013153873205258931
 -0.37142299294949416 0.24483893548051755
1.22 0.21199501464648907 0.1526248526650943 -0.3227572079926862 -0.14360713742345782 -0.04307610138959661 -0.3388414819062768 0.2434946212589657 -0.1471864875040084
 0.17784148026879215 0.1656354543567439
 -0.32244235013320816 -0.14389657507547401 0.20574301802552647 -0.11631080954831076 -0.03568432392838901 -0.1176403408106603 -0.0023629711254219525 -0.0425444339755121
 0.03437663773815363 -0.011878649260073364
 -0.042651936105147434 -0.3387090560065084 -0.03567369025579928 -0.11763586952720521 0.1439406905425716 0.12528783070378 0.03399473038774672 -0.023276813422082154
 0.02705743648791137 0.022476845163548427
 0.24351017402205336 -0.14679343879138917 -0.0023582814818817067 -0.042536732120459435 0.03399106814241477 -0.02327292467654252 -0.49659593501065497 0.21289830162688592
 -0.066683196171679 0.02284871049882306
 0.17755347745207953 0.16570151163778024 0.03436849412222452 -0.011879842728890663 0.02705758493231354 0.022468903772306786 -0.06667757684938931 0.022861988795280043
 -0.358643558873925 0.24544210177108314
1.23 0.2034175074829016 0.14512503565008214 -0.3359072248719088 -0.1157418637367628 -0.07485828726396174 -0.3340446850351274 0.22676329735181702 -0.17224225251548472
 0.1989544821421821 0.14714848245277107
 -0.3356589191274216 -0.11607794995673881 0.1974740318103285 -0.11757741047385312 -0.04750810576076932 -0.11318704971999513 -0.009728407596362959 -0.04148861417082172
 0.032211781881012654 -0.01821843336812715
 -0.07445545694663498 -0.3340360101926606 -0.04750912659662192 -0.11319601999576566 0.1504563889416736 0.11539471670322042 0.029122200415672688 -0.028950811683678874
 0.031235084330824052 0.017223952967545815
 0.22683724813178902 -0.17193817210091025 -0.009732316468039985 -0.04148390448961665 0.02911370856961093 -0.02895019460401015 -0.4828308458609651 0.22547910048353106
 -0.06374128384593597 0.03227250943499943
 0.19865449142715336 0.14724996240379004 0.032198297690971864 -0.018213827388091266 0.03122263821136644 0.017213357006331576 -0.06372408684557954 0.03226032191544616
 -0.34690777551103347 0.24597928125296029
1.24 0.19503846414659154 0.13934184293486632 -0.3466564971304395 -0.08648510897078143 -0.10615054909532162 -0.326303375254908 0.20753315922076518 -0.19508154077588327
 0.21789911205879062 0.12585217850123093
 -0.3464202442076767 -0.08685274528117014 0.1899251633628573 -0.117945553731379 -0.058807466344718146 -0.10743306574292782 -0.016773822749160096 -0.03917183541721424
 0.02884236381607238 -0.024155052189992417
 -0.10575288980702605 -0.3262757936286219 -0.05881369187820164 -0.10742371640445203 0.15575385179825613 0.10569486978182688 0.023351904286996482 -0.033605914464079116
 0.03436403906642495 0.011185159413832114
 0.20763360872970307 -0.19474852369973072 -0.016773822436024027 -0.039164814933828826 0.023349911808645034 -0.033601871897967 -0.4688814585269023 0.2370141920482621
 -0.05937256931422987 0.04116599723365978
 0.21765560789792848 0.12600642265429615 0.028834884039743415 -0.024155832293864997 0.03436141806153207 0.01118193786124353 -0.059370062191371566 0.04117117917890959
 -0.3359459600069727 0.24652920800689648
1.25 0.1871391567065771 0.13510790255656427 -0.35472958665915283 -0.05612413899643954 -0.13661515490853182 -0.3155432804733396 0.18619387809190724 -0.21540937867135176
 0.2342769339384373 0.10210167640971754
 -0.3545331635864334 -0.05649208478006883 0.18313891737167495 -0.11762194092955293 -0.06939200119812712 -0.10039083880525979 -0.02326479684747798 -0.0356797176693267
 0.024353220765237226 -0.029438750150106104
 -0.13622281518151663 -0.3155624310505155 -0.06939328865315131 -0.1003866592428345 0.15987383922005702 0.09631011497103946 0.01691079145088042 -0.03710548109666375
 0.03629700163754032 0.004589358530506011
 0.1863052875454989 -0.21512465349801776 -0.023267244746158815 -0.03567198023223314 0.016904700657796957 -0.03710383849954252 -0.45480238487502594 0.24743620163086044
 -0.05371370758984324 0.04933644129898549
 0.23406439058008938 0.1022679671890641 0.024345273728037537 -0.029439245977175198 0.03629400142558314 0.00458380170403243 -0.05371256513548614 0.04933749021086689
 -0.3257377118011601 0.24726248299883033
1.26 0.1799374706305295 0.13230880947151552 -0.3601001488894826 -0.024848139441645226 -0.1659223444405764 -0.30183535570606224 0.1630746108929218 -0.23317022880964133
 0.24780742333939465 0.07619669231914805
 -0.3598803866506002 -0.025189318780688866 0.1770391430575275 -0.11688430889712981 -0.07908418852953014 -0.09215235805128769 -0.02903280765328694 -0.031141752915533005
 0.018869902023522667 -0.033866077885979236
 -0.16557643580550738 -0.30186715399843733 -0.0791007923733705 -0.09216042420721557 0.1631487405112596 0.08728927387875508 0.010013505779436415 -0.039375148420586766
 0.036931932749374966 -0.002331783202285424
 0.16320539832757847 -0.23293138899136795 -0.02904019364113757 -0.03114172602410508 0.010010658725744187 -0.03937496645426908 -0.4408857981021948 0.25704183281461523
 -0.04689964703789324 0.056610456874309996
 0.24758676741774646 0.07635891246001887 0.01886362356193503 -0.03386569377879713 0.03692337544501643 -0.002334066453434292 -0.046889489577598475 0.0565992740264661
 -0.3161350509260426 0.2481476889465779
1.27 0.17359401643127886 0.13076431018129697 -0.3625846160349714 0.007100900700398068 -0.19384217958500347 -0.2853069959862472 0.13848359471604663 -0.2482210981976283
 0.25814873942306393 0.048550344367166196
 -0.36243372460883194 0.006726367628271179 0.17164252143077396 -0.1156121240675667 -0.08773772502623987 -0.08287359018788155 -0.033914188064998387 -0.025720770592003367
 0.012580853867214923 -0.03724266964164843
 -0.19347123961735996 -0.2854183076287942 -0.08774255529655911 -0.08288585509482375 0.1655797520696265 0.07876197149625083 0.002907543087388793 -0.04037704532960893
 0.036224235688056085 -0.00929576465284745
 0.13864288886751036 -0.24800896766697783 -0.033920545344997964 -0.02571642904961307 0.002898624410415139 -0.040376002597902465 -0.4268626770896533 0.26585227901112685
 -0.03908654978342165 0.06278292637191656
 0.25795051632983584 0.04872480412180289 0.012569907088876198 -0.037238775498740766 0.03621143776507579 -0.009303232358516456 -0.03907334974779007 0.06277020861758728
 -0.30698291592689025 0.24926955753093372
1.28 0.16830284845797527 0.1301917593351509 -0.3620342420341196 0.03941826699057648 -0.22005104582002125 -0.2661554375324653 0.1128474540019401 -0.26055911116904873
 0.2651126916337313 0.019637107863750284