! AWR Design Environment (19377) Sat Dec 27 02:21:50 2025
! Document = 'EM_Extract_4_way'
! nPorts: 5, nXvals: 401
!
! Created with skrf 1.8.0 (http://scikit-rf.org).
# GHz S RI R 50.0 
!freq ReS11 ImS11 ReS12 ImS12 ReS13 ImS13
! ReS14 ImS14 ReS15 ImS15
! ReS21 ImS21 ReS22 ImS22 ReS23 ImS23
! ReS24 ImS24 ReS25 ImS25
! ReS31 ImS31 ReS32 ImS32 ReS33 ImS33
! ReS34 ImS34 ReS35 ImS35
! ReS41 ImS41 ReS42 ImS42 ReS43 ImS43
! ReS44 ImS44 ReS45 ImS45
! ReS51 ImS51 ReS52 ImS52 ReS53 ImS53
! ReS54 ImS54 ReS55 ImS55
!
1.0 -0.025531653736546103 0.3380353627361534 -0.004527491692083289 0.013913572339185894 0.16684433087053951 -0.31198300347533436 0.03643518847076063 0.1828218966059881
 -0.1372900337570848 0.021074335171074307
 -0.004523538681435057 0.013868975078335137 -0.776622052678678 -0.010878922299586953 -0.001930212182665362 0.005099412765815783 -0.00027853356919551534 -0.0015499029071857175
 0.0011628259568011454 -0.000155689073859538
 0.16644270274873785 -0.3111023301465246 -0.0019280718723277443 0.005101692129874159 0.2648014549989737 0.09821541974934643 6.599224693808366e-05 0.03808870479991754
 -0.028354847404752945 -0.0012156942337942789
 0.03625244097589381 0.18230907866518234 -0.0002789675266317418 -0.0015499731361391272 5.639788570492316e-05 0.03808264772450608 -0.7046592097312536 -0.1009398649469671
 0.01948077346738651 -0.02068722274642724
 -0.13689410113343997 0.020952472834069792 0.0011628230521066175 -0.00015598734015921705 -0.028348267254221623 -0.001222872184000594 0.019479806126032985 -0.02068573904462631
 -0.7240517659736374 -0.06525932588813102
1.01 -0.0258637139987498 0.33614183445495066 -0.003198448168499925 0.015627520401307805 0.1377602503084688 -0.325848464179088 0.059804534232119344 0.18328451369767018
 -0.1371189437761779 0.03670559152924122
 -0.0031878821841910474 0.015584637931816416 -0.7683447168333105 0.023266140335428162 -0.0013767093562490214 0.005742626403262481 -0.0006448342071090662 -0.0016241159253422841
 0.0012195474164616662 -0.00040924532561405257
 0.13748490292420656 -0.3248517205172499 -0.001379350002976317 0.005741191449772459 0.26887068060553804 0.08623520423566099 0.006911073143396074 0.03812892456386814
 -0.02830750574091416 0.003563872567094538
 0.05958933342307647 0.18283302314299807 -0.0006442354460375264 -0.0016247192768223874 0.006915075302089264 0.03814105865105595 -0.7021667162842042 -0.07809772095936972
 0.017013197793342073 -0.024544572122928644
 -0.13678104896726645 0.03656175237639024 0.0012199922898656701 -0.00040875070866448234 -0.028317002150477402 0.0035655601693208518 0.017014089825492112 -0.024544356663894148
 -0.715580480647357 -0.03683450357465419
1.02 -0.02662465340621739 0.3365491034389696 -0.001503488204961222 0.01728970425457242 0.10747151523843854 -0.3366453149008191 0.08357184377215592 0.18016105833360194
 -0.13516199417901464 0.05240723352832888
 -0.0015114604512433518 0.01723910259623861 -0.758276905529831 0.057272846130242076 -0.0006883206256493631 0.006352989521548215 -0.001057536352156409 -0.0016140966019510497
 0.001225471377807116 -0.0006938739270753082
 0.10742474154229162 -0.3355833694171211 -0.000688788902251977 0.006352693830571217 0.27200204738804457 0.07422295801031477 0.013755303106957998 0.03680361070867592
 -0.027457613780399473 0.008282255777922933
 0.08325954197484269 0.17966814692282532 -0.0010580160039424526 -0.0016136701341586037 0.013770132670681095 0.036797625264129205 -0.699403300507623 -0.05491320878699054
 0.01382342422009402 -0.028099255756904303
 -0.1348062451472557 0.05221041115250176 0.0012253461395556203 -0.0006943411396129735 -0.027457624049509948 0.008294552095901343 0.013825189910164785 -0.028103088874938564
 -0.7057053664174157 -0.009023688552993868
1.03 -0.02732343514153715 0.33931765965726784 0.0005605083905437233 0.0188707361741233 0.07646864308741935 -0.344112393311193 0.10692700981230886 0.17330466824484242
 -0.13132442175019912 0.06786443673293457
 0.0005452273598206503 0.01881695085342804 -0.7459788802576489 0.0909595787045398 0.0001458459820232755 0.006920118492966375 -0.0015010349011579862 -0.0015026703966871534
 0.001170339671446137 -0.001003132184076859
 0.07660840995388514 -0.3431078928094632 0.0001439243329485051 0.006921382317114273 0.27414906479686557 0.06227323514040637 0.020265617643774013 0.03409492479911234
 -0.025797041799613524 0.012784985516398858
 0.10650426181226436 0.17281689947416537 -0.0015009723788599225 -0.0015019590234934446 0.0202737596114517 0.03407003598717801 -0.6955232455586053 -0.031375525394639676
 0.00996937100090354 -0.03117959086828761
 -0.13095036453753306 0.06757751051484628 0.001169863098038457 -0.0010030527466991885 -0.025779893838711425 0.012790731388117723 0.009970943675779246 -0.031178725937623785
 -0.6941559223686035 0.018021819845319885
1.04 -0.02721693006415904 0.34440897922622526 0.003032583715037275 0.020282698241341806 0.045051054542343615 -0.3483607454387202 0.12920994446722298 0.16295546253704274
 -0.12574479772935934 0.08284204020166139
 0.0029899078135051166 0.020226560931535686 -0.7317791319096678 0.12409477030427576 0.001131480239589239 0.0074094610269074945 -0.001948255692182933 -0.0012740839464061259
 0.0010429675908315784 -0.0013234473973698423
 0.04537473936239997 -0.34741647737004044 0.0011349480908946642 0.007412478879056164 0.2754158009438976 0.05041461383224854 0.026155509872014114 0.030115543996328174
 -0.023388024551897327 0.01694245799746709
 0.12857868364474423 0.1625524214725461 -0.001948104104750074 -0.0012726504979576748 0.026135556358275646 0.03008749402868581 -0.6910393231598398 -0.007601662044950756
 0.005568590526969285 -0.033680652974078705
 -0.1254478216630479 0.0824497607194097 0.001042151416549079 -0.0013239483133334134 -0.0233726924388219 0.016937341876272265 0.005567553141310569 -0.03369208272965496
 -0.6811062804160342 0.04411084979060419
1.05 -0.025817787355981614 0.3516314070884424 0.005878520523139043 0.02143166716565521 0.013675035076214318 -0.3492315129952208 0.1496649496316016 0.14939695955430027
 -0.11850218307337639 0.09715011521892537
 0.005830477587667074 0.021386979013386487 -0.7155574568160366 0.15652900461682176 0.0022671550084204417 0.007784174026207808 -0.002366332092324574 -0.0009199480554055764
 0.0008341720268559258 -0.0016389883298131521
 0.014109065222104363 -0.34846936126770495 0.002269792896216119 0.007786625304614623 0.275666444286901 0.03892983384720184 0.031126803252380885 0.025028275869162668
 -0.020294746558210206 0.020630258080686272
 0.14902461242749315 0.14927753840469607 -0.0023660872116548826 -0.0009203626875434522 0.031103601005051763 0.025030875946018202 -0.6853034287609393 0.016260549166118424
 0.0007218979846780419 -0.03553746808601151
 -0.11836425950104973 0.0967339979377108 0.00083421121079554 -0.0016391614958329716 -0.020293117376345902 0.020620184913664595 0.0007144922693734788 -0.03554203649871285
 -0.6665636864991495 0.06912105927738518
1.06 -0.022605099511215643 0.3605930949900101 0.00910834414352111 0.022259547942481656 -0.017263661857348043 -0.34696085812262367 0.16795170158120962 0.13322391339569706
 -0.10980567152186349 0.1106755051194915
 0.009055635963920703 0.022242482564552156 -0.6973512745783144 0.18799190958495246 0.003546314133055017 0.008022315010210623 -0.002725419377087686 -0.00044373039859664054
 0.0005405878352893862 -0.0019331811886287094
 -0.016675272416469558 -0.3463050791812265 0.003545890552881786 0.008017861448992953 0.2752334354531401 0.02777515224686294 0.03498899527116911 0.019100637957233824
 -0.01662848391605867 0.02374254358267205
 0.16740114593762603 0.13326752836945344 -0.0027243319217002643 -0.00044354366434895385 0.03498893415984645 0.019107768951147998 -0.6787469888090958 0.03999217674918255
 -0.00447644248552876 -0.0366955216529547
 -0.10975036824387031 0.11027358812452795 0.0005398896057264901 -0.0019321373249995945 -0.016625840809693142 0.02374048037265641 -0.004482598924483774 -0.036687508757290335
 -0.650879838216918 0.09280807850188143
1.07 -0.017288386754358162 0.37095772406413446 0.012708848977647406 0.022677652616669805 -0.047444298441119304 -0.34164739924358223 0.1837005307232912 0.11488891443817456
 -0.09965863484815358 0.12322164080135242
 0.012635527401573516 0.022666540244684456 -0.6772850700082831 0.21843428362167755 0.004953056274230267 0.008073567821106511 -0.0029857696650506258 0.00014709966698316454
 0.00015801431874769943 -0.0021797906550484712
 -0.046701233353885624 -0.3411608875931034 0.004955864491430753 0.008072487096584743 0.27400999302378143 0.017215385889467503 0.037614637490780256 0.012590831023140426
 -0.012476716597402241 0.026187015815225225
 0.18323260762629717 0.11500163844806154 -0.0029862552006088474 0.0001491195010490695 0.03762428280851103 0.012579234790039345 -0.6709815572242185 0.06363176405459708
 -0.009900067240638792 -0.03706723205734451
 -0.09969907416214518 0.12287020462902877 0.0001566048467498204 -0.002180302288202763 -0.012469222740365528 0.026194737002311088 -0.009899733818630824 -0.037066979128384074
 -0.6337997643986315 0.11508191138647177
1.08 -0.009409210319687271 0.3823687752993769 0.016610064288601695 0.022606120937894762 -0.0763771641862968 -0.3333274993804663 0.1967771281443982 0.0949658973390835
 -0.08833282346398875 0.134720100812218
 0.01654763439801215 0.02259482668164151 -0.6553506438126032 0.24770956065684663 0.006468774306757698 0.00790930662152848 -0.0031180818383214986 0.0008338406679302146
 -0.0003087494065806816 -0.0023583939134671824
 -0.07563801156879538 -0.33309787722102224 0.006468872280720747 0.007915910439727265 0.27228145594685266 0.007128740449441912 0.03894033320521979 0.005774774918501984
 -0.007974832469094063 0.027900468295330844
 0.1963699000567132 0.09514051714955081 -0.0031190315904760357 0.0008341805804938878 0.03893520812124606 0.005757014690608136 -0.6621917727496776 0.0868903538480548
 -0.015419640033925186 -0.03669307313405933
 -0.08840739899240296 0.134413411497087 -0.00030913745677293525 -0.0023590729930876887 -0.007958541196040702 0.027899022340668725 -0.015423160048912152 -0.03669128304325486
 -0.6158425576724759 0.1358856559933197
1.09 0.0013440764892647464 0.39424009797000054 0.020778032125234224 0.02193290224581894 -0.10382427118166508 -0.3223679377165553 0.20705743418888287 0.07392204343445774
 -0.07587926266896536 0.1450854023479883
 0.0207115793233401 0.02194261831707146 -0.6314544805298328 0.27583477681721313 0.008059280441685874 0.007498877886013319 -0.0030905739789902536 0.0015857763499866567
 -0.0008492756735960186 -0.002441915346432609
 -0.10310340990926753 -0.3223967070788248 0.008063245811528622 0.007506072535347653 0.27011179705540395 -0.0024633091155206164 0.03895379684973517 -0.0010664981229821257
 -0.0032444887216838583 0.02882957421119435
 0.2066658925879401 0.07416858310517616 -0.003090249366868514 0.0015862471828270803 0.03892494790878285 -0.0010811417421151262 -0.6523391900745759 0.10988445174354283
 -0.020937291228926572 -0.035538574987558275
 -0.07603382482945555 0.1447980088799545 -0.0008498239757320538 -0.0024421659415881907 -0.0032311475832682308 0.028815094302056563 -0.02094129616064767 -0.035544951729699174
 -0.5967957844578549 0.1551139630046573
1.1 0.01513301652601478 0.4059551415332224 0.025105626895622728 0.020601908611900394 -0.12944979274106078 -0.3090891684844551 0.21457793614297876 0.052230694100175126
 -0.06248356474771178 0.15427919406136795
 0.02504250174271546 0.02062323950763646 -0.6055510268248814 0.3024962410475573 0.009682695557807859 0.0068129772563042664 -0.0028792533741028876 0.002364636425958735
 -0.0014456516466986584 -0.0024054476261985915
 -0.12888902843862843 -0.30920866605898006 0.009690557503418528 0.006817627652760797 0.2674872344239927 -0.011627673767524799 0.037701886805422316 -0.007680525109277237
 0.0015776960434886107 0.028946994073438106
 0.21427505879269892 0.052586703384675165 -0.002879996467116773 0.0023645242572764773 0.03767961517481357 -0.007667721022346412 -0.6412693155462166 0.13254769223738963
 -0.026365382356393526 -0.03364239633193637
 -0.06267200534294119 0.15405634385646322 -0.0014464978000928207 -0.0024058229116003574 0.001580631216037959 0.028932352548722503 -0.026380354342165388 -0.03363798515593601
 -0.5767479501530497 0.1726488030894093
1.11 0.032018376103929075 0.4167428314649258 0.02948145277458151 0.01852469566614651 -0.15309660848494303 -0.29376855046282196 0.21953652368127963 0.030342625651645902
 -0.048206482570784095 0.16231698493736108
 0.029436826876325362 0.01856260187679987 -0.5777399037638308 0.3276027454691546 0.011290326320158894 0.005823652642992789 -0.0024709642448636974 0.0031252210597410624
 -0.002073606049608448 -0.0022255576421155135
 -0.1526090619783532 -0.29399226951833163 0.011295049150102656 0.005826272841963372 0.26451137032057237 -0.020206033559303165 0.03532131456210921 -0.013810774670019918
 0.006346534336344307 0.028260320482317868
 0.21939458006339382 0.030721558916790837 -0.0024717811881034917 0.0031251134502635895 0.03531232728043661 -0.013800555588965285 -0.6292122069113186 0.1547533569055546
 -0.03165340987395385 -0.031002996374844174
 -0.048426407977468874 0.16215690045009573 -0.002073741497519583 -0.0022253038644813876 0.0063465343629906905 0.028246800326270183 -0.03165736042647873 -0.030990306544552128
 -0.5561267932555514 0.18828951663302362
1.12 0.051851077893142396 0.4261123244213548 0.03380803403742685 0.01567085673057875 -0.17461500489872336 -0.2768393448007557 0.2221040398007841 0.008580401705862935
 -0.03314456967647176 0.1691025854002146
 0.03377238427622708 0.015718762158288723 -0.5481500472376576 0.3506916106986839 0.012829575787599388 0.004525959653478644 -0.0018650910281607417 0.0038171630359246215
 -0.002698240545150532 -0.001884904006741086
 -0.17417354311837271 -0.2770474209141188 0.01283184402544878 0.0045254755414656685 0.2613808148144208 -0.02819660522941435 0.03196490818387595 -0.019277201603123496
 0.010924955783985198 0.026784205169469347
 0.22206037508501514 0.00889172595641159 -0.0018648180739189366 0.003818170757125878 0.031964767773533 -0.019280291097886423 -0.6159457844848713 0.1762968267775239
 -0.0366782238112673 -0.027610535115790518
 -0.03336740054556489 0.16898772591606753 -0.002698352376379577 -0.0018842937002774155 0.010924720337766211 0.026777313172155863 -0.03666883663294412 -0.027602914194689583
 -0.535105293218072 0.20202388630518953
1.13 0.0744044295946838 0.43331589370997525 0.03793286970262622 0.012051614052590566 -0.19395694761169274 -0.2585862296092403 0.2225917575839075 -0.012861632704997048
 -0.017424337211090782 0.17464566013608207
 0.03789763158348638 0.012085067766126844 -0.5167199443135304 0.3716691131652008 0.01423435256501537 0.00292296697821674 -0.0010753580045612925 0.004389321588730461
 -0.0032773057043341916 -0.0013768534177655842
 -0.19352605466878237 -0.2588075492079762 0.014237968267730095 0.002929761414090192 0.25827959293615854 -0.035810257725939654 0.027828795093958907 -0.023957866416351666
 0.015180324803781906 0.024582826987838213
 0.22247645677208805 -0.012600958118863574 -0.0010756636739505843 0.00438927299220135 0.027811418727903627 -0.02395935524666207 -0.6015709644427013 0.1971109451249456
 -0.04133894797983348 -0.02350024011602347
 -0.01760942903593851 0.17450474967541496 -0.003276879186595125 -0.0013769058839876065 0.015182149403869567 0.02456666818962471 -0.04133456978596927 -0.023497304479643148
 -0.5137470015527698 0.2137020855690425
1.14 0.09929141727622723 0.43775481095705077 0.04173247169340629 0.0076268567992733224 -0.21107942047925185 -0.23934090013993745 0.22107383849291898 -0.0338025343856771
 -0.001035379145639387 0.1789060996444859
 0.041685063489114216 0.007658224726969419 -0.4837808804455957 0.3902848835119423 0.015447535206503969 0.001025167577604895 -0.00012621598598965884 0.00479214186362858
 -0.003767253156057504 -0.0007015872012408626
 -0.21076965873402212 -0.23962510078670896 0.01546248536549089 0.0010321838454299059 0.2551220675684667 -0.04307635026474037 0.023085848740197337 -0.027758092001126486
 0.019015434230973193 0.021719289828660417
 0.22101489038281472 -0.033523758263005694 -0.00012754596153318195 0.004794591588664386 0.023071439076138577 -0.027747771176939447 -0.5861657673236302 0.21703064167413277
 -0.04556089551185806 -0.018706468456321214
 -0.0012591353455956768 0.17885612968555875 -0.0037696453257424455 -0.0007032943845083593 0.019011165854416853 0.02171159227628395 -0.0455678448656134 -0.0187125012203731
 -0.4924740720874563 0.22335206094983792
1.15 0.1259162617563634 0.4389389674424205 0.045101937997817323 0.002432480096502934 -0.22621060744928004 -0.2195382174455486 0.2179307827911148 -0.05420296753156167
 0.01592699191857952 0.18199220381373707
 0.04504376944292992 0.0024754406117170344 -0.44951245363626197 0.40640437699242055 0.0164387189326524 -0.00114297038351796 0.0009447729311663574 0.0049934429409360485
 -0.004129138957413293 0.00012502018017240832
 -0.22591275163800897 -0.2197387086173063 0.016455281555409696 -0.0011425616166665918 0.2519218592193503 -0.05021587056842721 0.017934956832442044 -0.03064967610917849
 0.022336395019840718 0.018295863709458494
 0.2178702703922315 -0.05393917156440035 0.0009451500254614388 0.004996943740077904 0.017928193956356246 -0.030640877905798815 -0.5698114447796325 0.23605445046567414
 -0.04929118710776945 -0.013262918336360202
 0.015738032687940173 0.1819022381485781 -0.004131838545978541 0.00012523567451740026 0.022330987113666958 0.018286706514369293 -0.049290579712950616 -0.013258132025752028
 -0.4715663716872372 0.23102162174436858
1.16 0.15369164421044515 0.4364714147807284 0.047860501345232315 -0.0035035380167108567 -0.2392732846465921 -0.19925699845569536 0.21319231720983295 -0.07410069414893507
 0.03354685742711155 0.1837569616448922
 0.047826470308240436 -0.003437272685388116 -0.4140209849955107 0.4200537998387049 0.017135165985972277 -0.0035562192882210688 0.002095609833986656 0.00495553877416701
 -0.004315526108549834 0.0010832007910495207
 -0.23904967609010436 -0.1994865269959505 0.01714657368653551 -0.003563959686534037 0.24842343054321364 -0.0573165022857678 0.012536485015734289 -0.03261864979683067
 0.025066746508049385 0.014392260781180598
 0.2132124273491022 -0.07383294897029362 0.0020975381434643154 0.004957661356164068 0.012537708534047128 -0.03260975358371739 -0.5526609726518408 0.2542971206396092
 -0.052414709118060024 -0.00716587967575295
 0.033367242256520935 0.18372019929792632 -0.004316981429547333 0.0010854732052695219 0.02506122641211781 0.014385254278904672 -0.052413210732053434 -0.007152903807807582
 -0.45123357242765827 0.23679117892645205
1.17 0.1818090099620674 0.430239540571973 0.049908786983046204 -0.010087400931850118 -0.2505970398768622 -0.17877149066533896 0.2071120182237973 -0.09346312769647724
 0.051862114286915284 0.1841171869588514
 0.049896240700398754 -0.010023300677397406 -0.37758642338755083 0.4308700064517391 0.017493133476633844 -0.006178099887938209 0.0032722169797125646 0.0046583323138678495
 -0.0042846893254924875 0.0021380274499709366
 -0.2503300565906779 -0.17899173566319015 0.01749602501930884 -0.0061810740361454555 0.24464519180785754 -0.06384473196321447 0.007059708894639486 -0.03369938204145449
 0.02715070886190211 0.010099945863213554
 0.2071134390014444 -0.09321070769589905 0.003273138721887541 0.004657959629278943 0.007056185442524815 -0.03369446301762199 -0.5345018260713775 0.27142761318618364
 -0.05481821635730234 -0.0004567135374083703
 0.05166760066596512 0.18405559213366288 -0.004283653849817274 0.0021390822839117292 0.027144651638633024 0.010091684435963515 -0.05481089383152723 -0.00044987912280009353
 -0.43196534628586425 0.24084676196071175
1.18 0.20969586314195357 0.42013612571173176 0.05116639330246283 -0.017265428620118123 -0.26021041494963415 -0.1582917271691886 0.19960923589435342 -0.11236730783630551
 0.07079363840220194 0.18289859430726088
 0.05114766847077628 -0.017197876995382513 -0.34019922421383453 0.43875222434991223 0.01747368905686559 -0.008954069044103247 0.004417688453400797 0.00408901888032891
 -0.004002938082820614 0.003240013771251651
 -0.2599782562716713 -0.1585434659912099 0.01748279743367879 -0.008958133161208665 0.24084715233249776 -0.07027354327306773 0.0016271790185544688 -0.03393763904932853
 0.02854224343920909 0.005535651470168083
 0.1996260563192536 -0.1121459231514295 0.004419899292150573 0.00408945201977084 0.0016192732192840161 -0.03393159764143159 -0.5155414188317973 0.28735510497272276
 -0.05636913936780088 0.006799436840312022
 0.07060271004743393 0.18287318786700665 -0.004003271353217087 0.003241699497542827 0.028536416284714032 0.005527385831730279 -0.05636552037254011 0.00679997542872709
 -0.413775935663531 0.24342039264155402
1.19 0.23661661610750134 0.4063351729622387 0.05151008576422926 -0.024952727710606606 -0.26841276902024275 -0.137856974594191 0.19070951622854762 -0.13089384125522294
 0.09032150535324696 0.17991973227149477
 0.05146727724005176 -0.02487313286794576 -0.30221162613584407 0.4435573136461067 0.017041897776437272 -0.011839675240295425 0.0054734553335111695 0.0032482751884725485
 -0.0034458252566621035 0.004331852432954746
 -0.26811544001679377 -0.1380840969799406 0.01705693800607473 -0.011845226851515595 0.23700397181309363 -0.07636386944780758 -0.0036680656133737566 -0.0333856194453357
 0.029205299158658247 0.0007893539924093502
 0.19068919493995173 -0.13060926661010197 0.005476128822337314 0.0032501485820338417 -0.003672370745801381 -0.033377162243529504 -0.4958737100405563 0.30205129089621174
 -0.05692889923985042 0.014506185208536882
 0.09008049319170301 0.1798784028530347 -0.0034479782549634024 0.004334097560778579 0.029199914472069967 0.0007850646658511861 -0.056931828292156005 0.014506134771790566
 -0.39682059368766265 0.24486123560169787
1.2 0.2620542061137135 0.38913382814222386 0.05080426137481981 -0.03308049119441903 -0.27522631922333785 -0.11750323824048763 0.18022272149659296 -0.14889870286195653
 0.11029361883125517 0.1749068723398805
 0.05076870585500085 -0.032988105944115595 -0.26379330650476684 0.4448951755322377 0.016168085009842167 -0.014787672682356723 0.0063783515032664675 0.002145405106525593
 -0.0026002542353412393 0.005349248191537728
 -0.27497570749202654 -0.11776205192663944 0.016184998046162774 -0.014798195828787341 0.23297275962962175 -0.08242771848003129 -0.008723267059103174 -0.03208909111276007
 0.0291208364882158 -0.004025712773108001
 0.18029163974772056 -0.148620932642226 0.006383106479721371 0.0021480424948476717 -0.008723056005774416 -0.03208573747073272 -0.47557235476111165 0.31536964278009816
 -0.05636890534280767 0.022533696091059718
 0.1100457838598612 0.1749234338873639 -0.0026027403053165443 0.005353016387420704 0.029116456151202064 -0.004027111479877479 -0.05636546824592514 0.022535408484086153
 -0.3811326596320514 0.24529699173258382
1.21 0.28532006369638485 0.3687184749276032 0.0488858531716813 -0.04149342442063505 -0.2808566442419794 -0.0972965903640106 0.1681704466959046 -0.16633757124719625
 0.1305767887416172 0.16772902516857655
 0.048889670697739945 -0.041391369920303914 -0.2254018707521631 0.44271766412210856 0.014808629027093076 -0.017718945288195516 0.007064598543556381 0.0008056279332232871
 -0.00146828272986964 0.006213811529524841
 -0.2806575854479561 -0.09756093435116579 0.0148147283056056 -0.017733206370667595 0.22846199028584976 -0.08822175854507903 -0.0134522560727174 -0.03011753861620835
 0.028290675027278285 -0.008798761144457518
 0.16828364804855786 -0.16603933318950795 0.007067712412547822 0.0008058432016852323 -0.01344427298985677 -0.030113712860178454 -0.4547156158795891 0.3273335672574702
 -0.054577732151568595 0.03069387763390208
 0.13032278291956798 0.1677346997525685 -0.001466859026415678 0.006215928830001766 0.028279284948074305 -0.008798318314999809 -0.05456021867957525 0.030703683900993865
 -0.3670639969573609 0.24503373434381082
1.22 0.30614955114319875 0.3455772675161691 0.04573647033114338 -0.050050812500533864 -0.2855399669074436 -0.0771546136869796 0.15446737715313555 -0.18311171304578663
 0.1509079811767964 0.15807467643406473
 0.04577811875574854 -0.04993124612027614 -0.18737692559341393 0.43706104970191506 0.01296156359893794 -0.020575201407247046 0.007476704859593847 -0.0007269179418954465
 -7.504920223739256e-05 0.006847365988773107
 -0.28531684126202234 -0.07743468711074919 0.012955848664754669 -0.020590461318544993 0.22362464965123804 -0.09376449733897213 -0.017797562643850098 -0.027535693362250105
 0.026709671481830705 -0.013429551403071322
 0.1546287458270723 -0.18286811532919423 0.007480429605440656 -0.0007308565570716327 -0.017798388586365593 -0.02754056540444804 -0.43350663396145994 0.33782098875137245
 -0.05147109688224008 0.038817045386889217
 0.15064595599546196 0.1581187790742961 -7.070003195128953e-05 0.00684881509999283 0.026702906715557258 -0.013429634841632645 -0.051447279782373595 0.03881229388049394
 -0.3544221953945937 0.24440820592470217
1.23 0.32412993200903667 0.32006297948421086 0.04127769696971833 -0.058561001820312486 -0.2892172343177587 -0.05704791284532722 0.13916987219297539 -0.19897968448188944
 0.17093977714297423 0.14586723431779317
 0.04133080996566231 -0.05845256185409955 -0.15013897147448052 0.42766379414746913 0.010603140022410985 -0.023267632551949538 0.007563168410593168 -0.0023950711866566163
 0.0015335467354889757 0.007174537275767144
 -0.2890512475279656 -0.05735230708099333 0.010599685151918751 -0.023282055557789956 0.21855302586071015 -0.09877036766056421 -0.02168333975575049 -0.0244199081610077
 0.02441049467821584 -0.017797185081528364
 0.13930968264084437 -0.1987484339278446 0.00756478064823713 -0.0023994193408654867 -0.021683762334688987 -0.024415254516326486 -0.4121288280397482 0.34666495633223954
 -0.04703684684535506 0.04659420224137881
 0.17066160605701536 0.14594021883814248 0.0015367365525822713 0.007174445331363828 0.02439999265475123 -0.01779218428825157 -0.04702520110773293 0.046579570076993995
 -0.34319318937982846 0.24381419132830098
1.24 0.339032436047587 0.29266559864525343 0.035446357507493496 -0.06686542324440425 -0.29201372759979644 -0.036909158102363705 0.12214444322669858 -0.213868099917029
 0.19031837618343858 0.13094491391209595
 0.03549898085843018 -0.06678651568626455 -0.11417165547960127 0.4146043319714234 0.007739937374413157 -0.025724561049842283 0.0072860306662628285 -0.004136442542497723
 0.003292399636923125 0.007129650322509153
 -0.29185635326627807 -0.037232952666238724 0.007742939151923549 -0.02572935862108636 0.21343704501115932 -0.10333830363712551 -0.02507376516237398 -0.020819895568578453
 0.021419040308919203 -0.021793758199753373
 0.12230887910141251 -0.21363006791275072 0.0072864865233284925 -0.004137122935858525 -0.025072929033802628 -0.02081499563312024 -0.3908239403906473 0.35395912385267303
 -0.04129691882898582 0.05382200772899231
 0.19008436027566242 0.13106846318638646 0.0032932383057609218 0.007129817321210568 0.021412932166503442 -0.02179380116219691 -0.04129357241212292 0.05382258082622324
 -0.33305675725744394 0.24344428977692642
1.25 0.3505103995448664 0.26383107611247714 0.028204588287312985 -0.07478656129030818 -0.2939184066533958 -0.016716125086281147 0.1034263115395053 -0.22746191352278988
 0.20863285598387638 0.11327074638322727
 0.028247293755455948 -0.07469803914888946 -0.07995061688234094 0.3980154689789557 0.004391848929251271 -0.027836605291347457 0.006616625451507279 -0.005864971028633428
 0.0051112230951731044 0.006659239992864593
 -0.2937883440766801 -0.01703231595436161 0.004399651069012588 -0.027848732287251026 0.20822916176177356 -0.10750852245845302 -0.027907303842579945 -0.016809174660176323
 0.017795099117236184 -0.025311749330854966
 0.10358871837619567 -0.22724665100107702 0.006619163786229731 -0.005866544391302387 -0.027906032991918798 -0.01680274061511006 -0.36982887936399395 0.35968928991886934
 -0.03432546979431976 0.06023446931068293
 0.20842282394921183 0.1134076074803911 0.005112738091468064 0.006661734501968478 0.017788651584212646 -0.025311645738482446 -0.03432473256125833 0.0602359054822248
 -0.32390744559757895 0.24356369806002096
1.26 0.3585901339277375 0.23409643677719116 0.01945832000952083 -0.08211445955257668 -0.29497175132987014 0.0036669815327044723 0.08304431773719642 -0.2396357152156109
 0.22546752636918801 0.09280539554919812
 0.019520584648362444 -0.08201245001919769 -0.04782400052609057 0.3779338204290593 0.0005749891851125549 -0.029530963592394675 0.005546770337773407 -0.007505283308058839
 0.006896082238962433 0.00573000394779275
 -0.29481539351973124 0.0033744814262179996 0.0005748936147052297 -0.029544680097095485 0.2028461989772618 -0.11139267029187672 -0.030164138906425254 -0.012453554601155674
 0.013596955992227768 -0.028262419876189493
 0.0832236641109099 -0.23944327869155363 0.005549055733776167 -0.0075096421681739925 -0.03016670634280427 -0.012452201412072624 -0.3492648594821496 0.364211513899385
 -0.026258293287502787 0.06562853665691491
 0.22524684825945315 0.09293820939063234 0.00689953379336686 0.0057311351229242845 0.013591904536633819 -0.02826180544706204 -0.026250019953672463 0.06562085576152533
 -0.31548512885465047 0.24419608636874113
1.27 0.3631558395974404 0.20394269223370812 0.009255213867330466 -0.08856823775331402 -0.2950850963796051 0.024340734350756992 0.061051763158180575 -0.24999592777165563
 0.2402881070866353 0.06964601738493212
 0.009348977713119162 -0.08845739413839425 -0.01831592428059919 0.3545328440345812 -0.0036488785853490274 -0.030694875998901812 0.00408390648779792 -0.0089578049952859
 0.008526047126224085 0.0043340884625300904
 -0.29498131007728684 0.02402782819158447 -0.00365610861021638 -0.03071558673952921 0.1973054215078986 -0.11469052297926068 -0.03180003111114811 -0.007828564066393132
 0.008916551685596488 -0.030554024345957005
 0.061253219558366254 -0.24983299526323174 0.004084371946060129 -0.008965163193183402 -0.03180113690403825 -0.007824998843280077 -0.3291151890753074 0.3673841441523582
 -0.017277206531464986 0.06973082326998842