! AWR Design Environment (19377) Sat Dec 27 02:21:50 2025
! Document = 'EM_Extract_4_way'
! nPorts: 5, nXvals: 401
!
! Created with skrf 1.8.0 (http://scikit-rf.org).
# GHz S RI R 50.0 
!freq ReS11 ImS11 ReS12 ImS12 ReS13 ImS13
! ReS14 ImS14 ReS15 ImS15
! ReS21 ImS21 ReS22 ImS22 ReS23 ImS23
! ReS24 ImS24 ReS25 ImS25
! ReS31 ImS31 ReS32 ImS32 ReS33 ImS33
! ReS34 ImS34 ReS35 ImS35
! ReS41 ImS41 ReS42 ImS42 ReS43 ImS43
! ReS44 ImS44 ReS45 ImS45
! ReS51 ImS51 ReS52 ImS52 ReS53 ImS53
! ReS54 ImS54 ReS55 ImS55
!
1.0 -0.055032184640564724 0.19248962097986172 0.04925439265020461 -0.029896758215052426 -0.008987910474473667 0.020948523745178284 0.33141015135366964 0.09875977292397878
 -0.14887637583638125 0.01863960051534918
 0.049106003474078806 -0.029796854653598537 -0.20922361003689272 -0.45037509056146174 -0.0010893768684599604 0.0005622269533565745 0.0052547198466845425 0.009304481170589128
 -0.0037106326130462706 -0.002778892279769645
 -0.008973280003444252 0.020886870063733767 -0.0010899596850726236 0.0005620701771341922 -0.7990344426952839 -0.10333838855602274 -0.003831540895125385 -0.0017905545625157959
 0.0018345606668023387 4.248380363425955e-05
 0.3305536143756987 0.09860404701252981 0.005256665251151822 0.009310755730289548 -0.0038328090806364545 -0.0017902067404746366 -0.15564044621206136 0.05201177390802754
 -0.013544889779476639 -0.049062645565381945
 -0.1484451977079722 0.018519885659335156 -0.003710388423714734 -0.0027803871657951637 0.0018341723794970516 4.239787705969767e-05 -0.013530981474726294 -0.04904275668838894
 -0.7248677582732704 -0.06332700398764919
1.01 -0.08232301687097497 0.1922918941021431 0.04720091665583665 -0.03874510063934396 -0.006593880170506376 0.02337615374533139 0.3415329586410867 0.059125631320090064
 -0.14854912773244996 0.03738170653691714
 0.04709511519849326 -0.03860131048476365 -0.2510000389175094 -0.42776379672814707 -0.0010930959529194418 0.0008423978965274622 0.007485794418341976 0.008355684825225414
 -0.0045210567301721336 -0.002033136290094907
 -0.006583234675509127 0.023311599205696597 -0.0010929109987530073 0.0008429911851280355 -0.796937936258777 -0.06891805434514406 -0.004343825382823521 -0.0010232200815658901
 0.001938121574300126 -0.0003655016359314658
 0.340580811326895 0.059094954043057896 0.0074894724896562275 0.008354067146422561 -0.004343546444487806 -0.0010235298161727791 -0.1474410130501126 0.07106528548821207
 -0.02103915050247156 -0.04763551318891391
 -0.14818220011759764 0.037231982731001555 -0.0045230163001297365 -0.002032068173358642 0.001938369372162375 -0.00036542045902709 -0.02104339854198973 -0.04764278912326977
 -0.7159061095808118 -0.03484788726724738
1.02 -0.11070969427891657 0.20067813952523067 0.043480397176885933 -0.04760709506129346 -0.0036463532849430394 0.025560274713550567 0.3452438904488185 0.01880802733135581
 -0.14550494442375084 0.055981869882032215
 0.04338181196136436 -0.04742591129398884 -0.29036527422463376 -0.4010245701549114 -0.0010337491001527089 0.0011558003005611528 0.009520757194574502 0.006824093212559391
 -0.005175050593370973 -0.0010517173579361898
 -0.0036630991066769238 0.025484719027189715 -0.001034396286894322 0.0011558494674244425 -0.7929676236275809 -0.03440057052877839 -0.004690829331809947 -0.00011136825644313727
 0.0019505847788654452 -0.0008194483319712621
 0.34429134486937635 0.0189667624110914 0.009525469565387624 0.006825185270203174 -0.004691251073267261 -0.0001092735839020057 -0.13735522161440236 0.08844526562421659
 -0.028272377133442068 -0.04502711106925845
 -0.14512180753026302 0.055771196901174803 -0.005177156894413573 -0.0010500501903883985 0.0019500792797428584 -0.0008207931708375267 -0.02828123470782612 -0.04501820719746338
 -0.7055830854764925 -0.007114776441503834
1.03 -0.13771002435977783 0.21788980586100096 0.037984222069912546 -0.05607733860132674 -0.0002465285551130276 0.02734337452730608 0.3427403001615638 -0.020691776372956494
 -0.13977227949221732 0.0738081428607211
 0.03792018020502223 -0.05587989736787386 -0.3268634601849803 -0.37042982644178335 -0.0008991083343269834 0.0014853165601686775 0.01119260550786694 0.00476487352296011
 -0.005597074091699528 0.00012724262872244993
 -0.0002433325926070643 0.02725440488006364 -0.0008974281718398903 0.0014856993512938983 -0.7870378231212775 0.0002528180281420439 -0.004825798231120008 0.000902525807939645
 0.0018521914298444122 -0.0012948980810326325
 0.3417429097142384 -0.020305161210145903 0.01119187899232682 0.004765849489369213 -0.0048281269853586335 0.0008977678700786562 -0.12587820637913805 0.10411606983309875
 -0.03496256298152254 -0.04130635454082763
 -0.13937504782196328 0.07349780533445296 -0.005595939352697764 0.00012884072101905432 0.0018532506028794053 -0.0012938397543352156 -0.034972519556236564 -0.041285685465866355
 -0.6936669112061974 0.019753549527306652
1.04 -0.1608039694101241 0.24362407630905678 0.030819767070038 -0.06376026726737667 0.00361648272511789 0.028661378907803278 0.33447568586729115 -0.058116413206102155
 -0.13169651519526931 0.09038873171084472
 0.030786552504315962 -0.0634940226385171 -0.3600513761590674 -0.3363169689294538 -0.000675877818282003 0.0018163313603381931 0.012341874569739003 0.002285876323835034
 -0.005726306071991257 0.0014376464362807764
 0.0035703565074539333 0.02856225107352518 -0.0006757593232686092 0.0018163435491574459 -0.7790070189689091 0.034688690721535805 -0.004730015979482169 0.0019598916465847385
 0.0016399351273317416 -0.0017644082713456845
 0.3337053147249695 -0.057525762450850865 0.012354695252011286 0.002289666909462388 -0.004735433834307404 0.0019611916602329076 -0.11331533272674588 0.11805397246487874
 -0.04097216995080537 -0.03668269228883128
 -0.13138943623994057 0.08996671756335446 -0.005729050499816897 0.0014390933474482364 0.0016406830299901434 -0.0017654428495945489 -0.04095833148810169 -0.03665294706111387
 -0.6803522923184157 0.04560929969892852
1.05 -0.1777799284733752 0.27670443224476504 0.022149563791395804 -0.0702154215666888 0.007800872527644794 0.029369456158186417 0.32149591129813737 -0.09236656726647319
 -0.12165786855814117 0.10536812209054157
 0.022200322862899233 -0.06996093666135506 -0.3896056576277829 -0.29900432313237596 -0.0003596297188434519 0.0021236720801914117 0.012879876450423449 -0.0004545558971170932
 -0.005529724698490277 0.0028014063860241985
 0.0077195632053829325 0.029299159213604816 -0.000360317447579792 0.0021239209946058127 -0.7689575989014411 0.06880919201129397 -0.004389787749533114 0.0030054401967426845
 0.0013089261071218526 -0.002199439787935822
 0.32092792845596235 -0.09169857653990741 0.012891456816191547 -0.000458177767822807 -0.004391400393824558 0.003010056890472983 -0.10012140298108653 0.1303787142996096
 -0.046183422563932534 -0.031328895716229405
 -0.12152488399929884 0.1049273097549187 -0.005532971149254528 0.002804229505968328 0.0013085646867326771 -0.0022011605464575023 -0.04617009430081657 -0.03132521188583173
 -0.6656468202703407 0.07037836703738028
1.06 -0.18664510248967303 0.3154003557362959 0.012310860805284977 -0.07517666838242926 0.012186441244177972 0.029468865891804717 0.3048045849683788 -0.12283866740591479
 -0.11020797156069041 0.11858399013772199
 0.01244533875871015 -0.07497692668476384 -0.4150954127381859 -0.25916547234671344 4.7334531522835603e-05 0.002387114557950176 0.012751026734448305 -0.0032872603342023205
 -0.004997460375746643 0.004131679101731417
 0.01210302924812037 0.029422125567129937 4.807064900112645e-05 0.0023869744800548453 -0.7573300948479869 0.10228943374249258 -0.0038114020112305982 0.003981939584220417
 0.0008669755494013356 -0.00257279726966407
 0.30442818980998304 -0.12213537214827895 0.012754623411648567 -0.0032965011580186583 -0.0038120767430871736 0.003985050397539648 -0.08642719875614491 0.14124016158839273
 -0.050578408542428635 -0.025452504166193952
 -0.11016419940120604 0.1181649950746795 -0.0049960728328370145 0.0041356122870087175 0.0008664559716551899 -0.002573758016973129 -0.05056719417426497 -0.025447328641556414
 -0.6498821130009423 0.09385839763681499
1.07 -0.18627698906904597 0.3572648790360365 0.0016611660039192876 -0.07845727821166824 0.01665491768214006 0.02890049120781972 0.285587240434265 -0.14926424233791064
 -0.09770762145847134 0.1299377145387317
 0.0018361888868274794 -0.0783270751323757 -0.43654377988491805 -0.21725890702381162 0.000540201652645305 0.0025795776851412827 0.0119526735639302 -0.006037394241182579
 -0.004134887281946138 0.005338814586394029
 0.016583385025303862 0.02887516545235755 0.0005421673996504138 0.002578845594485125 -0.743595062659354 0.13522237362109177 -0.0030138154625005556 0.004827919410588435
 0.0003267079522525751 -0.002852139180540104
 0.28542125210656655 -0.14853207981924615 0.011950925140351294 -0.006043875778766764 -0.003015910280650766 0.004828090962401515 -0.07238581901413882 0.1507495582753561
 -0.05414503055138157 -0.0191964503582073
 -0.09776180979825783 0.1295788838498515 -0.004131484937437563 0.0053418458203242205 0.00032708682336851283 -0.002852573454441886 -0.054145540957120784 -0.01918551953969023
 -0.6327642407746632 0.11598652850054679
1.08 -0.17631866876692498 0.3998475782420099 -0.009423253306949925 -0.07998668063608902 0.021120967903101202 0.027678227411410267 0.2649474599384581 -0.17168303030657303
 -0.08468268141194976 0.1396065186063958
 -0.00927638523658311 -0.07988864484646276 -0.4536855178836557 -0.1737452591715931 0.0011083466203882651 0.002678740201914515 0.010533020177508389 -0.008537928676030072
 -0.0029815390220845413 0.006343136267258742
 0.021052939649105686 0.027668082876223216 0.0011091353733859175 0.002678428886277911 -0.7279916098891599 0.16743612608880468 -0.002034732831313316 0.005497262488217655
 -0.00028944408383564587 -0.0030170228652995072
 0.26491166617265305 -0.17098640145834768 0.010535400696273196 -0.008537738134445775 -0.002037258062318324 0.005497094274300207 -0.05795059172349995 0.1592161965751003
 -0.05696978133927762 -0.012704673028174946
 -0.08476913409178147 0.13929851353709052 -0.002980278479471704 0.006344377242150067 -0.0002893027827867072 -0.0030172767245607588 -0.056971850755651005 -0.012683635062464393
 -0.6147664929479032 0.13670692256707564
1.09 -0.15703908361977914 0.4408510193564862 -0.02064416077237833 -0.07975130470390665 0.0254751261159078 0.025812416006399816 0.24377434079578802 -0.19050154779899545
 -0.0713287517434434 0.14777456726859192
 -0.020459935465866358 -0.07968075164177477 -0.4664724154717939 -0.1290370018082282 0.0017309699337356046 0.0026648682918607018 0.00859479487707513 -0.01064513350479023
 -0.0015955472102192189 0.007074683591035926
 0.025406246166761952 0.025833536406377068 0.0017322917716956936 0.002665791249975466 -0.7107074855975626 0.198946546111154 -0.0009197535832744208 0.0059560790592831266
 -0.0009567714525368615 -0.0030488228453493392
 0.2439295084293226 -0.18985510337363792 0.008599123842723244 -0.010650409600417814 -0.0009209381596339187 0.005956070485640635 -0.04303411894625467 0.16662349057933176
 -0.059124278141861115 -0.006027760496863304
 -0.07149283809188768 0.1474916758160348 -0.001593848806153644 0.007077084254297979 -0.0009569186726329709 -0.003048111301704502 -0.059112677431138606 -0.006008354524734605
 -0.5956402395651926 0.15589519551035166
1.1 -0.1293453478444881 0.47834791302322344 -0.03167111317341574 -0.07781042990822652 0.029663218078577528 0.0233214002473179 0.2226845405510179 -0.2062082600069315
 -0.057863119636938624 0.1546944909256177
 -0.03148030067900608 -0.0777787284570611 -0.4748531449588355 -0.08357204849819047 0.002391500898046962 0.0025200140571711733 0.006248530075285884 -0.012268123380441942
 -4.159125393341928e-05 0.007487659136176074
 0.029568588974762732 0.02334311258558525 0.002390414101525534 0.002519079473286277 -0.6911600120619363 0.22956250460357772 0.00029143606251539657 0.006175401500189651
 -0.0016492996328642078 -0.0029309855660533926
 0.2229574363168797 -0.20571538890948934 0.006251324993973834 -0.012278484948260003 0.00029302887697486607 0.006182590521700147 -0.027481602161089372 0.17285866041572964
 -0.06065722583142949 0.0008263372802681132
 -0.05805597474106041 0.154478472262025 -3.853112416802737e-05 0.007490592815789854 -0.0016519467238046341 -0.002932584415708904 -0.060634399434344524 0.0008411963059925276
 -0.5754510677323965 0.17340019077001145
1.11 -0.09441228837308262 0.5105878174376032 -0.04221843740536111 -0.0742907845386916 0.03353198165823023 0.020266379559909096 0.20207379975025216 -0.21949711157070212
 -0.04430148559188588 0.1606534319249474
 -0.04204391852743285 -0.07435782737094651 -0.4790029471837096 -0.03785270293824049 0.003055888108960792 0.002234314624805305 0.0036307101101469997 -0.013347638779330361
 0.001602979737210898 0.007553189719796132
 0.033487831321494216 0.0203234061889349 0.0030569876140630176 0.002233546715158789 -0.6696540628665241 0.25914861866830885 0.0015416231276015587 0.006154432693571967
 -0.002335819146177413 -0.002663240629704727
 0.2024610383203737 -0.2191708206045309 0.0036259081138758737 -0.013354687136678891 0.0015428849940421195 0.0061559861742014645 -0.011409893316924269 0.17767685376382214
 -0.061602082128882615 0.007889082529541819
 -0.04452098709114611 0.16050015314562613 0.001607542160098783 0.007550555578141535 -0.0023358940380596746 -0.0026616405679112947 -0.061563003382390895 0.007895368285663278
 -0.5546182843691262 0.1889814940808022
1.12 -0.05379449735553771 0.5365422150439744 -0.05207361826696714 -0.0694103030981276 0.037101481772491375 0.016688523420291045 0.18215446366447005 -0.23094246856257408
 -0.030601358300942315 0.16580297945244668
 -0.051934414491636556 -0.06947766082202413 -0.47872084233509005 0.007627340191100053 0.0037002885587865274 0.0017985532755569046 0.000865619186907399 -0.013843638202605325
 0.003258591715404531 0.007246436337519939
 0.03706552531784386 0.0167293623283241 0.0037009386195346328 0.0017967142389376395 -0.6462082776041546 0.2874086160539557 0.0027867084454733936 0.005876993508357883
 -0.002982101733996929 -0.0022349461471041043
 0.18248239463794444 -0.2306763773910703 0.0008615486704433651 -0.013848360867358595 0.0027868292514396397 0.005879633787478593 0.005038407858056451 0.18099750067470416
 -0.06188413853329385 0.01516585632533439
 -0.030820609985184995 0.16569301088403882 0.003260932632088052 0.007244824187648945 -0.0029818026558975416 -0.0022352769863347136 -0.06185970216095843 0.015162353611810831
 -0.5333271742072732 0.2025810976865088
1.13 -0.009059975949335624 0.5554017443161876 -0.06107787171787457 -0.06330169131800124 0.040269237070497066 0.012632824903210084 0.16284624932210606 -0.2410981943805493
 -0.016682846798661034 0.17031154836860543
 -0.060974369954981185 -0.06336085850589344 -0.4741022673783366 0.052538678816210486 0.004288148597528838 0.0012136016562327191 -0.001914957423335161 -0.0137602890084061
 0.004839775079509806 0.006576708213540669
 0.04023346309431553 0.012677854248009823 0.004287528032183693 0.0012132321308154243 -0.6207635886894461 0.3140657144438232 0.003969777767539903 0.005355523079877221
 -0.0035508940889419785 -0.0016584970569782347
 0.16313219398409368 -0.24081178652925336 -0.001914376737269282 -0.01376131503011014 0.003970166366365565 0.005357093657477201 0.021717461326518236 0.1828335546363787
 -0.061479735222507007 0.022650491554540225
 -0.016863559831731836 0.1701744837976917 0.004839237190564887 0.006573438086121517 -0.0035504022495313377 -0.0016576510495317836 -0.06144802045453887 0.02265527527346712
 -0.511675710339797 0.21401480770728912
1.14 0.038148447144146475 0.5668753022648165 -0.06913654503003104 -0.056182971143811794 0.04301599364823577 0.00815128855467506 0.1439303238411062 -0.25034711250972486
 -0.0022936499584967746 0.17421367150329842
 -0.06903711200445702 -0.05624327382768727 -0.4653709469343828 0.09627277932553155 0.004790759505573592 0.0004897142499804749 -0.0045884654368473134 -0.013128363970553402
 0.0062690828610416395 0.005567470600974252
 0.04297892652195352 0.008193543565093898 0.004789798942485191 0.0004890200388120319 -0.5935857960891453 0.33903308165974094 0.0050517722175357415 0.004604193153766012
 -0.004012392144988759 -0.0009432141909690196
 0.14422689981540993 -0.2501025301926738 -0.004588371229136725 -0.013131595514056009 0.005052996105857054 0.004607216311189676 0.0385058059978914 0.18295679292539696
 -0.06028558371222948 0.03036992496478692
 -0.0025111876673545915 0.17416340248273937 0.006270004727931773 0.005568545525659706 -0.004013781080777596 -0.0009441590983618727 -0.0602807551721151 0.03037204221962476
 -0.49013458559847506 0.22329133394125356
1.15 0.0864556238012491 0.5711397868892997 -0.07619035841211644 -0.04822224755483099 0.045317120564101206 0.0032934624810466587 0.12521976570727722 -0.259006151203714
 0.012677537796442312 0.1775913767970572
 -0.07607438349073799 -0.04827666100596785 -0.4527958040901606 0.13846680085530277 0.005180680881459786 -0.00036115821558851036 -0.007059962287906731 -0.011999185415367916
 0.0074816285289013235 0.0042598154994756875
 0.04526914958671417 0.003330277886530811 0.005179372410426316 -0.0003626968759241127 -0.5647145986211765 0.36209616931136335 0.005993125520127856 0.0036476371598105593
 -0.004338193005132974 -0.00011080437863781734
 0.12547227876381575 -0.2587845569620003 -0.007064034386067522 -0.012004105471964965 0.005996346098215343 0.003651572367553902 0.05514550303499673 0.18140782429739533
 -0.0582337970932996 0.03827431726711599
 0.012494811331926188 0.1775007582368678 0.007483896790141156 0.004259019567830484 -0.004339977725370539 -0.00011129508585567597 -0.05821282572347614 0.03827202271447336
 -0.46903528371922365 0.2304638107305543
1.16 0.13473245745954937 0.5684595688632119 -0.08219995949279015 -0.03956471047636213 0.047130048861642994 -0.0019467672231158338 0.1062861280339488 -0.26705570240125753
 0.02848930875252789 0.1802300498390286
 -0.082104066537528 -0.03965299046282747 -0.436830644774311 0.17887562215874814 0.005432556067236267 -0.0013279407030768642 -0.00924976316744332 -0.010431408464725546
 0.008422056066587245 0.0026978519152544233
 0.047105686651885116 -0.0018863343110924339 0.005432238556316619 -0.0013282607188396904 -0.5344117510063737 0.3832337350129558 0.006760387886624065 0.0025082749330544284
 -0.004501144149427021 0.0008186916411640967
 0.10658750768629191 -0.2669296792801959 -0.00925646618623622 -0.010434927345954952 0.006764411172301545 0.002508820323166238 0.07156593712390388 0.17804633781853527
 -0.05514081849443908 0.046272696322512054
 0.028314757716538734 0.18018997404420467 0.008424536289737916 0.0026947676344795117 -0.0045017692613301226 0.0008204264560310724 -0.0551112608197308 0.04626907032100036
 -0.44863658520042815 0.23563595557460218
1.17 0.18175312529902074 0.5591211238118432 -0.087136940100423 -0.030403701252323345 0.048410342855226135 -0.007493781059867782 0.08698601967601052 -0.27479536126107784
 0.045329802947302315 0.181980695425869
 -0.08706066517356933 -0.030505528307488643 -0.4175732689927034 0.21720163591769062 0.00551629531790624 -0.0023819838702755134 -0.011091564274824219 -0.008502736201952046
 0.009037477107950657 0.0009387687094695696
 0.04839013298218001 -0.007434727739197357 0.005514884491316179 -0.0023825899728558753 -0.5026311539387931 0.40229243845630014 0.007318989746277855 0.0012148007911815819
 -0.004469766551872127 0.0018159496199011479
 0.08723380237064243 -0.2745889826646097 -0.011093857775216029 -0.008499590382618646 0.007320338748844286 0.0012143269455258017 0.08713721842175427 0.17281263769205202
 -0.05088016518949858 0.0542413880524635
 0.045141019708545074 0.18191452831176458 0.009036342508163073 0.0009347914092645691 -0.004469364123260198 0.0018170194838396134 -0.05086407402265928 0.054239893187500075
 -0.42946978714549916 0.23902788299833388
1.18 0.22676986672952731 0.5438622229472172 -0.09103510244885327 -0.020839802317585667 0.04917152227660203 -0.013331298416918734 0.06692632173369198 -0.2818438369407381
 0.06322170284407538 0.1825099960070797
 -0.09097365349909352 -0.020936551916267705 -0.39543031261794337 0.25327579250359084 0.005416633687646775 -0.0035023849482309767 -0.012530583641321915 -0.0062764979797902834
 0.009288406915644603 -0.0009517853068263366
 0.04915374493349515 -0.013271232087167403 0.005414974453254698 -0.0035021557675990653 -0.4695473108634709 0.4191094710606519 0.007643079676054664 -0.00019547383368059186
 -0.004228198620345888 0.0028427241246430884
 0.06719334552165097 -0.2816615762102546 -0.012531439023355304 -0.006275131245366102 0.007644960927275804 -0.00019555764964439574 0.10164244529517173 0.16605181204318242
 -0.04536339560559521 0.06195641292283556
 0.06303468474299684 0.18247825270449114 0.009287546219435512 -0.0009544716449771954 -0.004228401897799545 0.0028440014662149604 -0.04534885365588798 0.061960089273531166
 -0.41157421518573534 0.2409310777609267
1.19 0.26903438051813244 0.5232675992661991 -0.09393418812330023 -0.011003844985900207 0.04933825003358678 -0.01943821624192758 0.04594093668454832 -0.28823623782060964
 0.08221226710201983 0.18151289970659593
 -0.09384848209227277 -0.01108587041363607 -0.3705632747782191 0.28686620778799293 0.0051105941467314425 -0.004657223694615305 -0.013536392655474861 -0.003841764707378041
 0.009150727510330792 -0.0028980005340128205
 0.04930802609252508 -0.019371813637929287 0.005109572513787271 -0.004656391386755416 -0.43519285291820303 0.4334681544507083 0.007707710019311321 -0.001686077502539022
 -0.0037566195884973183 0.0038562195659494814
 0.04623922666164708 -0.2879900487562564 -0.013537443016590066 -0.0038446251718663787 0.00771047170274741 -0.00168518122691647 0.11477983479694262 0.15798945760614327
 -0.03853159721823485 0.06919459812523442
 0.08197554049617962 0.18146249295203742 0.00915147870457219 -0.0028981285952882794 -0.003757712814981407 0.0038571761628234838 -0.03851835584902575 0.06919755693590604
 -0.3951153510146056 0.24175583153567118
1.2 0.30808030342385917 0.4979920370155423 -0.0958042867857216 -0.0009379304769416362 0.04887480294668448 -0.025774908946215862 0.02392461352773581 -0.29350939928568537
 0.10217360078000624 0.1785790408298768
 -0.09571156110140032 -0.0010484224130485678 -0.3432905601432223 0.31781410982269376 0.004584816185547669 -0.005812202650356574 -0.014077915104972548 -0.0012801302531804807
 0.008611347180639835 -0.0048198034202162725
 0.048851032005264604 -0.02570210640298351 0.004583486567147377 -0.0058128843997057224 -0.39970310327961334 0.4451675199190408 0.007495617420780656 -0.0032091316383912574
 -0.0030505415294051993 0.004807462377196353
 0.024258656910990665 -0.29339555581851307 -0.014087264182473884 -0.0012809598058129467 0.007501517368849682 -0.003209912527843558 0.12657005261268106 0.14904954190742742
 -0.030387493461169646 0.07567578030206183
 0.10192652701739187 0.17858492440254614 0.00861414988348693 -0.004822578556490921 -0.0030522749710029237 0.004809222254716649 -0.03037106923558283 0.07565789243772554
 -0.3801111429102099 0.2416950422527632
1.21 0.3434086331085954 0.4685794075999358 -0.09667223790755775 0.009246074605997572 0.04768661990392073 -0.03229911949621186 0.0008227665151463266 -0.29755689083783393
 0.1229513740196805 0.17345480572805783
 -0.09656268223778745 0.009103056735614578 -0.31390133006385984 0.345925444968 0.003821255321380385 -0.006923622999602463 -0.014151812149281264 0.0013259664262272716
 0.007677614643291058 -0.0066361985145876445
 0.04766651640904492 -0.03219612153346116 0.0038206346727845744 -0.006923705544312441 -0.3634020785037222 0.4540407668527066 0.006989651043592039 -0.00471400391707326
 -0.0021107604793225705 0.0056388058044752705
 0.001180651270319521 -0.2974304586463707 -0.014163528026945107 0.0013292915641389994 0.006995353643952585 -0.004718685852491893 0.13693153017984613 0.13914864484682854
 -0.02101223440829917 0.08108950988342047
 0.12269731224119282 0.17344908267277814 0.0076791821516748165 -0.006642925960912333 -0.002110140588975755 0.005642761423127311 -0.02098628841666532 0.08107097895165591
 -0.36687661581624814 0.2411110201323166
1.22 0.3748537147693295 0.43578086964289475 -0.0965434951129721 0.019461087001580175 0.04574562744134018 -0.03891738434844985 -0.023378222834995663 -0.30010843306911456
 0.14425995192583826 0.16570534239824808
 -0.09648803147277507 0.0193035313963424 -0.28280525216327573 0.37117215641987744 0.0028255048448027936 -0.007949147764133998 -0.013774254762366586 0.0039008632156390015
 0.006370591821066954 -0.00827188960965177
 0.0457571091625384 -0.038821534065263945 0.002824511981141832 -0.007949317131555169 -0.32646582253906403 0.45996388950108497 0.006195037846515147 -0.006152195931180569
 -0.0009542787894948483 0.0062974876999529325
 -0.02301053976961666 -0.29997366724444297 -0.013777685531856725 0.0039059215417907257 0.006196223919271288 -0.0061553057851349785 0.14567130105922418 0.12860571534603202
 -0.010525078851534617 0.08519042118584137
 0.1439947794651864 0.1657375495966246 0.006368044161730237 -0.008276299481813005 -0.0009523760061698592 0.006299104966811252 -0.010508570626733353 0.08518026416291893
 -0.3551693803658828 0.24038968794701013
1.23 0.40215532293339273 0.4001251355943796 -0.09545958833815217 0.02961406545479748 0.04305305419831911 -0.04559439620216906 -0.048496472734973275 -0.30070195775106223
 0.16568638477090156 0.15514970688683621
 -0.09544707840765383 0.029466469843659433 -0.2501499617782296 0.3934238122821549 0.0016051952127087512 -0.008843753984825484 -0.012946234437568736 0.006358995570872038
 0.004728940158912175 -0.009643768010502908
 0.04306852172636662 -0.04550438927806864 0.0016028436142545765 -0.008841279386876713 -0.28924801152060337 0.4627760003526984 0.005115490170498657 -0.007461715922702075
 0.0003858486572366972 0.006728007268463493
 -0.048139178811063374 -0.3006725631693027 -0.012948323386866372 0.006363735778255803 0.005118352268009727 -0.00746625479592971 0.15273434707410544 0.11781347146911304
 0.0007955246097100394 0.08771107305145949
 0.1654023009313788 0.15521038850833438 0.004725004136329691 -0.009643613450174239 0.00038667395022438076 0.006728928044350377 0.000803205348248944 0.08767161791482016
 -0.34490396640668763 0.23995374783632495
1.24 0.4252304701387765 0.3621003993812148 -0.09350431548289477 0.039671734971216406 0.03954784982196371 -0.052260928365818436 -0.07444344877969714 -0.29932038109948206
 0.1868053311136645 0.14155104165175802
 -0.0934927032770684 0.03953474813300907 -0.2164375775390095 0.4127999256229691 0.00017242853003083592 -0.00956242345760251 -0.011712299824255559 0.008636536249701574
 0.002806632964833362 -0.010687409988274171
 0.039583623113484775 -0.052188116979594495 0.00017156776731595428 -0.009563160299629545 -0.2519771848194372 0.4623302339418333 0.003775615277141024 -0.008597249601186983
 0.0018662690870291326 0.006883825470560979
 -0.07408864615610082 -0.2992703812877002 -0.011713571018542514 0.00863964358351219 0.003775828347543569 -0.008598403265723068 0.15825674862737674 0.10718345181169375
 0.012696203358842723 0.08845324797365164
 0.18656241904730506 0.14166538986992777 0.0028049661984350174 -0.010688995289450847 0.001866941927369325 0.006883828158952064 0.012700489840836163 0.08844391604190967
 -0.3356857997282071 0.24000353565578816
1.25 0.443949749323696 0.3222169306276352 -0.09068535829465962 0.04957630869592313 0.035197958557600745 -0.058860920952861315 -0.10098567897117765 -0.2955922273899942
 0.20710588628808863 0.12483963507457782
 -0.09066611804678992 0.04946348241249068 -0.18182998351159024 0.4290162434223755 -0.0014498463947580176 -0.010063517754464785 -0.010108649285515574 0.010669533279534273
 0.0006733804687010538 -0.011350116554669613
 0.03521876489275828 -0.05878110763632232 -0.0014497286074022643 -0.010061929988200068 -0.2150795913357669 0.4586712155886484 0.0021950342891640757 -0.009500061341448412
 0.0034310237834779623 0.00672046338864048
 -0.10062900292213628 -0.29558130686522954 -0.0101136713487381 0.01067054835020261 0.002198011377804854 -0.009503790895173262 0.16230913278924325 0.0969418171441165
 0.024827767951405434 0.08730882573718043
 0.20688587651375795 0.12496926512487587 0.0006741868368565781 -0.011352172785885154 0.0034317172662648504 0.006722998328971428 0.024837532972215776 0.0872965733818158
 -0.32733088510948855 0.2407797880427256
1.26 0.45832295330309336 0.28086735610661845 -0.0869907306095529 0.059355952158837114 0.029923342710614156 -0.06531083289674494 -0.12781691618558724 -0.28933265417887233
 0.22611510484842914 0.1049502489682639
 -0.08697060215938941 0.059222210187624115 -0.1466016901721588 0.4425161795825836 -0.003233984350180667 -0.01029973185989494 -0.00818384739368527 0.012405576782117815
 -0.0016000790408245702 -0.011594340583538155
 0.029943240382058176 -0.06521363805197826 -0.003234500169820107 -0.010296839666866708 -0.1788258176288743 0.4517035257115273 0.00041400548037172206 -0.010125340298747124
 0.005016468733028069 0.006211162449976588
 -0.12749791897667484 -0.2893342593406462 -0.008187489819663956 0.012411562865103679 0.0004154015557173849 -0.010132510815990084 0.16528789890702686 0.08720474707448977
 0.036848338715536 0.08420029854013311
 0.22588371750999273 0.10507596546077978 -0.0016015526170221582 -0.01159702211273121 0.005018702637905635 0.006214341516957608 0.03684638970010622 0.08417838779204623
 -0.3195186428159387 0.24226637741641016
1.27 0.4682893834569706 0.23848624989984332 -0.08239980125620128 0.06893913241625553 0.0236551243697359 -0.0714944513635427 -0.15468929900481554 -0.28041061729323913
 0.2432285302144301 0.08196222540908245
 -0.08237464472745727 0.06876854475093992 -0.11091034251790724 0.45301527328623004 -0.005136255441958198 -0.010222967527571382 -0.005987951468869619 0.013801822897444088
 -0.003931439421073818 -0.011389796836147223
 0.023700868040725853 -0.07138551462845778 -0.0051367104914610984 -0.010222942313820633 -0.14345281704484922 0.44137545374640846 -0.001523766008283084 -0.010432373508106881
 0.006546743005201457 0.005338540703152032