! AWR Design Environment (19377) Sat Dec 27 02:21:50 2025
! Document = 'EM_Extract_4_way'
! nPorts: 5, nXvals: 401
!
! Created with skrf 1.8.0 (http://scikit-rf.org).
# GHz S RI R 50.0 
!freq ReS11 ImS11 ReS12 ImS12 ReS13 ImS13
! ReS14 ImS14 ReS15 ImS15
! ReS21 ImS21 ReS22 ImS22 ReS23 ImS23
! ReS24 ImS24 ReS25 ImS25
! ReS31 ImS31 ReS32 ImS32 ReS33 ImS33
! ReS34 ImS34 ReS35 ImS35
! ReS41 ImS41 ReS42 ImS42 ReS43 ImS43
! ReS44 ImS44 ReS45 ImS45
! ReS51 ImS51 ReS52 ImS52 ReS53 ImS53
! ReS54 ImS54 ReS55 ImS55
!
1.0 -0.0033238675250511496 0.21636661091295 -0.027186889934186793 -0.04268925919710575 0.006687218503158826 0.027694457671895257 0.3004873141859816 -0.05706009787184803
 -0.15023305459126615 0.010159059607548683
 -0.027085336159130086 -0.04255787478487132 0.19530972487460369 0.5017630338313729 0.0012534489389766964 0.000511858253246075 0.004200112375322372 -0.0072062697890912875
 -0.0024787572230264418 0.003273391192865471
 0.00665902353644721 0.02761820443887441 0.001253975806445756 0.0005121257025930961 -0.6352735409793521 0.03719073523205383 -0.003553830429905626 0.0030720145879168746
 0.0019185407827281553 -0.0012915552425852945
 0.2996946938299138 -0.05683634212214001 0.0042021226730167465 -0.007210764338900009 -0.0035540666615990818 0.0030728324969010626 -0.28436824298630103 0.3084795588629373
 -0.030571678736895116 -0.033088398857399184
 -0.1497941869268394 0.010063778037298146 -0.0024799938766915737 0.003274092128116096 0.00191844714452045 -0.0012912099134784088 -0.030556840637952807 -0.033085618094639044
 -0.7258224050347281 -0.06246977401216677
1.01 -0.027266109899584237 0.2057308025592843 -0.03428057991634778 -0.04185873364588972 0.011704883247508844 0.02935221240171098 0.29453630835955746 -0.08999233241372573
 -0.15181997892294677 0.02925867911490769
 -0.034148399525569174 -0.04172425999541992 0.22675748867724535 0.48705203187611346 0.0015529233025528945 0.000343978934177387 0.0029683186659905177 -0.008314398180380865
 -0.0019250034515319958 0.003991646679551916
 0.011668643728146964 0.029291806311976146 0.001554888711204701 0.0003444820381774278 -0.6111104128053615 0.06392730400783284 -0.0031233786664320463 0.004110870095545912
 0.0017783088689128895 -0.00188574308447666
 0.2937985685429862 -0.08969023909615317 0.002970332928959792 -0.00832208184333424 -0.0031217081834302 0.004109688532418513 -0.26179176896697554 0.31751047315491776
 -0.03580144052119008 -0.029400774945900203
 -0.15144172177745233 0.029128574111355113 -0.0019269510422122837 0.003995196837281383 0.001777677161994199 -0.0018850494846696885 -0.035798326006931114 -0.029405740977457368
 -0.7166447298681535 -0.03373245224159876
1.02 -0.0548206363554071 0.20341688045449327 -0.04164444880911886 -0.03980704327770988 0.017564540570496164 0.03020604638761605 0.2838715776024996 -0.1216649055129457
 -0.15055360457386519 0.04867361121747745
 -0.04143771709215181 -0.039684529460096735 0.2571617737520141 0.4705973746832725 0.0018626025472927494 8.000690528285827e-05 0.0014480146104897868 -0.00918880825767365
 -0.0011735016811988527 0.004618120028243611
 0.01750228617875827 0.030119802098298985 0.0018645872002432692 7.888586854906355e-05 -0.5844195686235091 0.08812764229777816 -0.002389719588620447 0.0051172752760780624
 0.0014611594514551856 -0.0024974594914789153
 0.283120499411258 -0.12116886503721483 0.0014458292601080966 -0.009200453126298904 -0.0023912292544770604 0.005117579697665444 -0.23921555064265332 0.3247050647776088
 -0.040499235183758774 -0.024905782989232954
 -0.15015367028360876 0.048481334841142566 -0.001172395816361883 0.004624739758820053 0.0014617249499047893 -0.0024979709195996898 -0.04050633600369949 -0.02490233822517468
 -0.7060377429195637 -0.005800996767756349
1.03 -0.08349987768778798 0.2104507408891107 -0.04899359444032907 -0.03641741278816523 0.02410298122697775 0.029911416228717715 0.26883551623094454 -0.15093302690371865
 -0.14632183722594058 0.06771592408958224
 -0.04877570449765185 -0.03634408043829365 0.2862457638139482 0.4524975133695836 0.0021553355994353004 -0.00029939126555491604 -0.0003132158929236486 -0.009754883043643492
 -0.0002366193450603445 0.005097443430096099
 0.023998024880258543 0.02981055525239252 0.0021547439538246913 -0.0003008192788262838 -0.5552507834212262 0.1092815446911951 -0.0013427606267034104 0.005991687709272168
 0.0009455480417756937 -0.003068712201344384
 0.2681548205902592 -0.15023261637240312 -0.0003159883070964905 -0.00976012094679334 -0.0013462575569324724 0.00599546221559654 -0.21686167264876455 0.33016876907164694
 -0.04447750190884438 -0.01973430213186284
 -0.1459006178521718 0.06742102550835057 -0.00023363919653916307 0.0050998447486822465 0.0009463898830718709 -0.003070542969531556 -0.044479625448734614 -0.01971723280177507
 -0.6937909115098989 0.02118482350111637
1.04 -0.11023244365289823 0.22729344348539737 -0.056023644167036805 -0.03163743796866832 0.031070944157056378 0.028214364520407178 0.25018748253939066 -0.17698401388804838
 -0.13938196436182893 0.08577719149257841
 -0.055803684145076214 -0.03163701781316164 0.31419114504469897 0.43278591897663676 0.0023933014003712865 -0.0008042744574084209 -0.002237372921902693 -0.00993558636815036
 0.0008508921071156952 0.005370452591764107
 0.03093293940889806 0.02816336604857909 0.0023923554909241005 -0.0008049290464273362 -0.5239469256772661 0.1269269135899504 -7.968128625262692e-06 0.006641421241358132
 0.0002322635591400071 -0.0035390196284902074
 0.2497331482460233 -0.17614660806066523 -0.0022408026946016076 -0.009936815956576906 -8.392006177041053e-06 0.006644505083515204 -0.19485919632104917 0.3342000352208659
 -0.04768129645762409 -0.014071819176670207
 -0.13904618471906752 0.08536100101786878 0.0008539559017173766 0.0053694093112806995 0.00023151964950218485 -0.003539677427670213 -0.0476713322700777 -0.01405412845736911
 -0.6801279989969936 0.04707254860476474
1.05 -0.13212350864115932 0.25303832531677833 -0.062423975027575705 -0.025566042996660508 0.038113995896333595 0.024985521216796758 0.22893918709632308 -0.1993083182598996
 -0.13010487204552607 0.10237844979457585
 -0.06222071568599423 -0.02561411838805209 0.34071970250567 0.4115705756545346 0.002535235872838242 -0.0014309067049646388 -0.004227394041575055 -0.009689344925596642
 0.002038120114416271 0.005391600211445269
 0.03796160863017709 0.024995008549886046 0.0025351155481706123 -0.0014301481627799612 -0.49111745038694143 0.1406064529651895 0.001557020884769649 0.006968910034809702
 -0.0006581893484454635 -0.003838306038392786
 0.22875382398555982 -0.1985012774477269 -0.004230635379216557 -0.009691533465585728 0.0015605851528443133 0.00697159959081131 -0.17341420329518903 0.3369257198212329
 -0.05009001409474551 -0.008070051501258212
 -0.1299468926835957 0.10193194684781766 0.002039796504309255 0.005391584790469459 -0.0006602046880108847 -0.0038390049372372913 -0.0500800011864528 -0.008064595789896477
 -0.665077208706376 0.07179292480377472
1.06 -0.14679051908174212 0.2859283439403952 -0.06796389910377398 -0.018372269795244426 0.04489553475507631 0.02016466536964149 0.20613603636943695 -0.21776633730904688
 -0.11905977942809735 0.11727328834211473
 -0.06775567080319492 -0.01844584697643417 0.3660616250787576 0.38894439679994225 0.0025395292777807324 -0.0021650686650421715 -0.006174726179594711 -0.00900861870706711
 0.0032604929402583697 0.005137314012960206
 0.044760749501482434 0.020204874154577078 0.0025407828160570714 -0.0021657597097924064 -0.45718193101830873 0.14981510238250453 0.0032732361997399252 0.006901199722355431
 -0.0016868231687089876 -0.003907827750439559
 0.20607879006977584 -0.21703409088038994 -0.006181103257539483 -0.00901323924875264 0.0032763497292470976 0.0069019103198940885 -0.1523545244459958 0.33859288594279124
 -0.05173397362636874 -0.0018761513686210134
 -0.11899554655079791 0.11684317631565787 0.0032632557812064446 0.005139188696035044 -0.0016881525509562865 -0.00390763961011169 -0.05172484853466592 -0.0018770688084727264
 -0.6489854527001194 0.09515000758976007
1.07 -0.15237526034836107 0.32347196166706776 -0.07240279986232133 -0.010229701113256887 0.05099927453486806 0.013773824111722035 0.18265569241399376 -0.23247381271590062
 -0.10665322798267131 0.13027647447259877
 -0.07222058553149792 -0.01036475086514185 0.3897389993308141 0.3647899704308097 0.0023639410078960523 -0.0029762028195347164 -0.007976141467114525 -0.00791355589863919
 0.00444738536445483 0.0045964766385764525
 0.05088430200280577 0.013844928958964088 0.002364097524166416 -0.002978307345241186 -0.4227978052978802 0.15426213012193668 0.005020711442652311 0.0063833252025244465
 -0.0027836606733214245 -0.003692311495610936
 0.18274797511235877 -0.2317643645720563 -0.007983823322324763 -0.007914031238255846 0.0050218815422768655 0.006382983152476521 -0.1317237124157653 0.3390802686335984
 -0.05262671211472299 0.004388915977816563
 -0.1066939671799129 0.1299028644814821 0.004452954690065637 0.004596832011494529 -0.002785193869754535 -0.0036922340861458226 -0.05263297349218366 0.00439661999999475
 -0.63157151390855 0.11709033071063424
1.08 -0.14835168344217103 0.3629753293608748 -0.07562012790722093 -0.0014219101676467153 0.056114963025334245 0.0059336104291583995 0.15934776322436522 -0.24389888983353847
 -0.09345111580958719 0.1415240962404878
 -0.07547129898953653 -0.0015915389175085583 0.41184731382939155 0.33913857231304617 0.0019737377693515063 -0.0038242923008303905 -0.009542343528532705 -0.006449705355999941
 0.005532389212644422 0.0037817321228579095
 0.05599574447834349 0.006018195347294608 0.0019715287225083263 -0.0038253379516649914 -0.38869874177294045 0.15378512158790456 0.006681566823662572 0.005403879324038989
 -0.0038717947500138475 -0.003165628255494926
 0.15955300684880952 -0.2432681321948761 -0.009550368049158242 -0.0064480733393177305 0.006684697675921289 0.005407078081778063 -0.11133965129106617 0.3387658562602625
 -0.05290939942692733 0.010660541431324824
 -0.09352857844483034 0.1412009774115492 0.005538851979730484 0.003779239069350253 -0.003875037915873709 -0.0031664488807953374 -0.05291041744455442 0.010679663211040401
 -0.6133176060969623 0.1375674635272337
1.09 -0.1347731364679169 0.40187374013787824 -0.07759740434889612 0.007825934874075631 0.0598738456395805 -0.0031502223902742125 0.13671958206733922 -0.25261275462068433
 -0.07969083430099551 0.15118057847366784
 -0.07750271759019853 0.007642285571138807 0.4321984018452047 0.3122849319750536 0.0013437201805303984 -0.004654837309975024 -0.010810342687701034 -0.004681948528771007
 0.006457634506332505 0.0027157254297919516
 0.059772281198239456 -0.0030306044329984636 0.001341767826663641 -0.0046536186229530156 -0.35569518496296926 0.14829045513942077 0.00812898642941394 0.003987477357519237
 -0.004859830750141668 -0.00232079926961567
 0.1370509410726823 -0.25201837468263016 -0.010813255893504627 -0.0046803569207870405 0.008132888722614242 0.003990353083986365 -0.0911330555239013 0.33738756659594177
 -0.05261296155514812 0.016930466353986914
 -0.07985119239479538 0.1508800820512736 0.006461291555701767 0.002712911768837197 -0.004863723849005135 -0.0023211360690147172 -0.05261504641166698 0.01695147334595041
 -0.5939807892655736 0.15646386740393728
1.1 -0.11238682881896052 0.43784329470272465 -0.07825608530949914 0.01728872366065513 0.061993920669926005 -0.013204862530052517 0.11501473250049053 -0.2591529646123549
 -0.0656414789577047 0.1594982767353412
 -0.07823064390856277 0.01709879253412293 0.450715805741312 0.2842682696265993 0.00046164974406998885 -0.005397422397203741 -0.011712624968246552 -0.002677459617874384
 0.0071622121505974645 0.0014354437559506946
 0.061927662004051594 -0.013089176468323674 0.0004577234238105222 -0.0053945862233164684 -0.3246111068986004 0.13773354541068075 0.009245266751971657 0.0021775360640595137
 -0.005655741447389363 -0.001173008157563739
 0.11540122073852219 -0.2587821263877571 -0.011715965355291447 -0.002672431956621244 0.0092518534913735 0.0021811199512442223 -0.07106017586764299 0.33472032616076586
 -0.051787426652681545 0.023242128512246406
 -0.0658354422938191 0.15926626734116503 0.007163235435878612 0.0014304762842406748 -0.005659083369316174 -0.001173604645748952 -0.05177320256943603 0.023249710484207188
 -0.5736286632640719 0.17363431265655244
1.11 -0.08257404964919934 0.46901744876844165 -0.07771075651351607 0.026765310459826226 0.062281909642562 -0.02388166867579922 0.09428267454255014 -0.26421320369448725
 -0.05131339415672679 0.16677425116185782
 -0.07770856481821196 0.026610581811976522 0.46728655293231186 0.2553383533422641 -0.0006635608495107782 -0.005981970411030099 -0.01222263238208749 -0.000511950080477941
 0.007604369393891152 -1.5894763391928106e-05
 0.062281826898161446 -0.023744313005226548 -0.0006625896413477044 -0.005981472957892107 -0.29655818898962705 0.12249295784530621 0.009928807781474255 7.198576284248351e-05
 -0.006169397821689264 0.00022566372875529824
 0.09467884744358689 -0.26397155835680414 -0.012226395899945319 -0.0005102428409736788 0.00993281573182733 6.899958629922996e-05 -0.05134533581966585 0.33064424982730234
 -0.050397582084462364 0.029619907924555218
 -0.05153840206324935 0.16660707056858218 0.007605135955713863 -1.7853282445081212e-05 -0.006170547128438875 0.00022823045878701798 -0.05038438579950032 0.02961927382175939
 -0.5526883316782037 0.18883872001994856
1.12 -0.04697074929344304 0.49420412616167664 -0.07601863280626894 0.03608341166163713 0.060641601387613556 -0.0347820185537291 0.07438550106430868 -0.268255846305199
 -0.03665745546407858 0.17315612663840538
 -0.07604938556418465 0.03594154714356748 0.48197503671219827 0.22560385501188715 -0.001992906626663211 -0.006343032602224781 -0.01232532620034048 0.0017235435228351232
 0.007749084820934903 -0.0015749753907100573
 0.060689734790500965 -0.03466565455544237 -0.001992554385433544 -0.006344273042415829 -0.2722854867817248 0.10295482201567945 0.010101365491292718 -0.0022239112954906713
 -0.006320905956535368 0.0018048183549462806
 0.07477700364039679 -0.268109641579337 -0.012328240309287797 0.0017262718623500257 0.010101729244597816 -0.0022270745742378885 -0.032243258143777806 0.32525434981784507
 -0.048389147256274245 0.03607002301208656
 -0.036884525817318374 0.1730347157986515 0.007748538261316019 -0.0015771450810022711 -0.006319096354316956 0.0018069611961879996 -0.04837229349648068 0.036064836335925325
 -0.5313585230111373 0.20202247710056304
1.13 -0.0072647414347151084 0.5125649875846201 -0.07329859962976557 0.045156588062248634 0.05706894212274052 -0.04554748755022808 0.055130794910064854 -0.27167682073617966
 -0.021584395190381796 0.17879589038040497
 -0.07333998702285822 0.045018837042297595 0.49475201185755197 0.19520099131020263 -0.003483232121382694 -0.006424013472810874 -0.01202509705313237 0.003960485946957752
 0.007576993006181651 -0.0031852983753378143
 0.057089314663722385 -0.045442596410053035 -0.0034844044690656886 -0.006421310446249732 -0.2526959735628376 0.07980093693041171 0.009714147522854962 -0.004575462371608573
 -0.006051605408997767 0.003463538975658678
 0.05548658155277635 -0.2715144443994295 -0.012025477367421208 0.003963815990608785 0.009717993030260916 -0.004576359131020239 -0.013848962844631626 0.31857631031305716
 -0.04568982348738352 0.042567467333809735
 -0.021771285058953215 0.17864740186794276 0.007573438769757705 -0.003188129770123353 -0.006050924911774237 0.0034644979595536292 -0.045662231637836476 0.04256265241935053
 -0.5097512839390541 0.21301019042818453
1.14 0.03478637976791821 0.5239275799678292 -0.06959182939503866 0.053894499311401035 0.05155180845569022 -0.055803181764508034 0.03608234791216914 -0.2746663166923429
 -0.005821925510521806 0.18368299169118135
 -0.06963330075724698 0.053765115667350566 0.5056324803714733 0.16419898551924111 -0.005071751490478679 -0.006168599621407371 -0.011324901798825887 0.006137154627410315
 0.0070700196400650325 -0.004788292705366237
 0.05158793462749295 -0.055699802856019234 -0.00507208951867988 -0.006166774302549979 -0.2384742208530371 0.05401567606672536 0.008763117304113627 -0.006843944098574008
 -0.005335902604616237 0.0050875349084321874
 0.03643852464044175 -0.274553778030339 -0.01132745292974839 0.006140345991361817 0.008767362613027404 -0.006846491069197234 0.0036625335118709483 0.31056678863158443
 -0.04218109348140157 0.04910651877642697
 -0.006050361413198545 0.1836257281002267 0.007070872413418848 -0.0047909211112426246 -0.0053379573374674385 0.005089707257461522 -0.04217583734486883 0.0491078884800338
 -0.4883530543725995 0.22182570670741422
1.15 0.07777006412736796 0.528536709700843 -0.06495088463701337 0.06224418912313286 0.044250689953630906 -0.06521068751981096 0.016958822261381234 -0.27724288298841576
 0.010732500795454522 0.18786296551431997
 -0.06497510990409106 0.06211332197523831 0.5145260154489314 0.13271551601439513 -0.006682261175384078 -0.005546436618449063 -0.010237509371749689 0.008187263178558626
 0.006229989048453889 -0.006319386486410125
 0.044278233073196054 -0.06509367825105876 -0.006681416935758516 -0.005544454631313315 -0.23004826359725017 0.026597178660441704 0.007269755346317807 -0.00889033274867555
 -0.004180869123116406 0.006556432701596703
 0.0172831974339345 -0.27719431359449903 -0.01024427030371167 0.008193697649871344 0.0072769832794474555 -0.008898220826711382 0.020099553662965952 0.30134351288562183
 -0.03778739262381259 0.05560298163286724
 0.01054076116463786 0.18776446103592523 0.006229851983495031 -0.006322402915591593 -0.004181866202368236 0.00655996457801865 -0.0377588669921799 0.055583530941118245
 -0.46750706056215263 0.22854262697016317
1.16 0.12053637776116266 0.5266735138577767 -0.05939817697016073 0.07010236393833401 0.035316818104752734 -0.07340268467003461 -0.00258592869282302 -0.27935976092274545
 0.028334454951718647 0.19107143946444724
 -0.05944217015874063 0.0699693965520619 0.5213634673785962 0.10077675480771713 -0.008220902316468992 -0.004539711735336624 -0.008786912519660387 0.010045486929157521
 0.005060111442480722 -0.007708400888817378
 0.035383024509391604 -0.07330803848748017 -0.008222018094273361 -0.004539632610608977 -0.22758622229603312 -0.0012755416957771597 0.005296974789675102 -0.01058507669782948
 -0.002622314776750183 0.0077478386643116
 -0.0022860356950768525 -0.27936786654845003 -0.008791771013871824 0.010055670664944982 0.005299026245994897 -0.010593500569298931 0.035367320606769365 0.29090772259767833
 -0.032348876749392054 0.06190977666330458
 0.02815008859005497 0.19102725148610067 0.00505926308664012 -0.007713679886263892 -0.0026206478150165176 0.007751236690707718 -0.0323263339486213 0.06189117013539462
 -0.44748141946971914 0.23329063787679324
1.17 0.16191831696806597 0.5188925588765934 -0.05305420248222028 0.07738230282384508 0.025040144055829924 -0.08013084209190041 -0.022853805685075317 -0.28094030553115323
 0.04714964387445956 0.1930823534761404
 -0.05310747418145522 0.07724231622930132 0.5261937306928605 0.06863220027992999 -0.009594145272557976 -0.0031655907855503715 -0.007009535893880473 0.01165177340704263
 0.0035840416716418455 -0.008885431885848937
 0.025119172149013057 -0.080029565683445 -0.00959468773671616 -0.0031651976720244515 -0.2311407634520339 -0.02849260590531362 0.00293234386532405 -0.011812508011893557
 -0.0007306035675101831 0.008546532987650221
 -0.0225552346335876 -0.28080696325426036 -0.007008562722031064 0.011657945381935991 0.0029304096243998987 -0.011816916486155814 0.04884331882968288 0.27958269960626037
 -0.02576391081218136 0.06782645677823014
 0.046949897722759544 0.19301130696594368 0.0035814579911465283 -0.008889817103322154 -0.0007276708248746168 0.008549235558708786 -0.025754635655850053 0.06782777497489613
 -0.42881281826522244 0.2363266661991948
1.18 0.20124141904850734 0.5059552373154729 -0.045959450237796816 0.0840471849441089 0.013717734646675429 -0.08520275958819527 -0.043950317134292566 -0.2814785049969673
 0.06714776483757459 0.19350506555313943
 -0.04603888410194162 0.08394485378014191 0.5288720566606377 0.03633907904095457 -0.010725488888389086 -0.0014568746772131583 -0.004943285555658736 0.012949745980812529
 0.001838266075838382 -0.009787009227509965
 0.013814759821706735 -0.08512679985958517 -0.010723855596598593 -0.0014567620477528866 -0.24029262499590637 -0.05393660125181761 0.00029805052847198547 -0.012485421384725404
 0.0013854502234589814 0.008866791446977206
 -0.043638068209636977 -0.2813803129190464 -0.004940705824415581 0.012951169237094114 0.0002953509519268828 -0.012487740770748733 0.06076379611900965 0.26763394735052853
 -0.01803001518929717 0.07311447999993398
 0.06694942466458118 0.19347151097536452 0.0018346770969421954 -0.00978835991216531 0.001389203808877019 0.008868182611475563 -0.018018349193385266 0.07312024626181372
 -0.4115291795600469 0.2379807324237745
1.19 0.23791381880318924 0.48855347335052585 -0.03821013434604309 0.0900599136791892 0.001693529454376042 -0.0885163348513997 -0.06599224568750096 -0.28084459705354364
 0.08830623352976175 0.1919751237568861
 -0.03827461399786613 0.08993184409330392 0.5295158680592336 0.004156800037480381 -0.01153200691989134 0.0005301282528787625 -0.0026421960561020612 0.013883004988132212
 -0.0001259250573786748 -0.010342797645231907
 0.001770657020952778 -0.08843041275318349 -0.011531813699066688 0.0005327619858779315 -0.25454747644231246 -0.07663622832180249 -0.0024692812128145002 -0.012551288723140902
 0.003598330559697506 0.008645857338651298
 -0.06562021448460799 -0.2806920507783997 -0.002642786335705988 0.013884879434647819 -0.0024665632056442535 -0.012553704636209822 0.07090974509454367 0.25554294644863407
 -0.0091559294585131 0.07749223618548388
 0.08805488560711944 0.19192313687014925 -0.00012740804893877694 -0.010345129469178156 0.0035984086119566034 0.008648192237613084 -0.009144591493685158 0.07750057235641673
 -0.39577419160267735 0.23870518627488913
1.2 0.2716420050769245 0.46740091562944575 -0.029830129602435175 0.09537799769146062 -0.010759306932751338 -0.08998825012329699 -0.08882287368460023 -0.278510990511936
 0.11039518590078792 0.188042318627355
 -0.029905491949257908 0.09525021325052295 0.5279605078847275 -0.027752936373290606 -0.011959731697813574 0.0027346082063095054 -0.00017175656429441904 0.01441226836923552
 -0.0022411394975691535 -0.010506642760347377
 -0.010669520576785555 -0.08988697004149025 -0.011956266918076427 0.002736967221161273 -0.2732499333912674 -0.09570106958119753 -0.005214489006818544 -0.011985424462653884
 0.0057594574148102165 0.007860464182202143
 -0.08844751476688745 -0.27851321652015854 -0.00017364388313177029 0.014421084035535811 -0.005214412295702731 -0.011997512585132125 0.07954631821521232 0.24341689334921984
 0.0007418621269379011 0.08067605609323858
 0.1101334147264607 0.18805147989920723 -0.002242566965602771 -0.010510996988998505 0.005761626376115732 0.007866807749505832 0.0007553494273916819 0.08066068731828228
 -0.38152580880310455 0.23872674713666292
1.21 0.3021034942441831 0.44308628041801723 -0.020903709503321176 0.0999287447663948 -0.023352541960373972 -0.08961478072248956 -0.11238687396215376 -0.27441310990327433
 0.13315224744949747 0.18143562406139202
 -0.021020962616048158 0.099787771574456 0.524468201331893 -0.059263530660505354 -0.011953831276315037 0.005072784968870458 0.0023890097805895636 0.014510948674190081
 -0.004420328704507231 -0.010239593153376591
 -0.023203660367655886 -0.08953552958188224 -0.011952089537380431 0.005072989677799006 -0.29547447324847403 -0.11059217907442309 -0.007797121570039782 -0.010824375165069207
 0.007724993419017665 0.0065369364666324845
 -0.1119987787434753 -0.27439001968350685 0.0023936046030397706 0.014518369380385731 -0.007804040065080345 -0.010830341970768148 0.08652488642170017 0.23140107184023107
 0.011476261790526902 0.08238941922916605
 0.13288325636943044 0.18143399659306303 -0.004426705329139044 -0.010241739097632608 0.007731511026604917 0.006537390836525136 0.011492906017771105 0.08237490060961924
 -0.36904712768014497 0.23843277891670187
1.22 0.3293377209988346 0.4162930389197397 -0.01149799831144042 0.10368510456584266 -0.0357501659634777 -0.08744175088303516 -0.1365402748323559 -0.2681397424105178
 0.15616793109616894 0.17173916666582578
 -0.011639858420550944 0.1035601717606921 0.5189882496652813 -0.09042097234490885 -0.011489305623655835 0.007457526162091595 0.00497824471798321 0.014161500923223906
 -0.006581358455847122 -0.00951781922726231
 -0.03557308123420652 -0.0874042090024659 -0.011489639415475834 0.007456087829037264 -0.320417370850066 -0.12094947640353561 -0.010088991589313824 -0.009110446908583215
 0.009356769308220679 0.004724736681251962
 -0.13615533024428808 -0.26816367577455685 0.004985257258245606 0.014167482787608678 -0.01009845306977585 -0.009111481529283268 0.09198762158629117 0.21975941811387456
 0.02282720955923757 0.0824159642296614
 0.15588856455300965 0.17177924544537226 -0.006588265016437906 -0.009518081892199335 0.009363201090733068 0.004721180614207782 0.02283723142232348 0.08239787203599445
 -0.35803253567455584 0.23821471537375372
1.23 0.3532799128076347 0.3874601670896631 -0.00168173822699855 0.10662712382271733 -0.047646803012993524 -0.0836028545452212 -0.16086193133716767 -0.25951032185216494
 0.17890184907235296 0.1588216808551629
 -0.0018343076465826818 0.10654391506956895 0.5116458617660062 -0.12106830199582107 -0.010561206003246056 0.009789703039485988 0.007507516527608459 0.013361820233198556
 -0.00862339831734875 -0.008345046907439226
 -0.04750908383813608 -0.08361022398502765 -0.010560840705029427 0.009792540674886266 -0.3470187163452277 -0.1264525205212512 -0.011967703108346725 -0.006934330121724035
 0.010534353272198324 0.00252568724562503
 -0.16052801947653716 -0.2595573096284595 0.007515643028496475 0.013362736404958464 -0.011971935140257874 -0.006932447668613092 0.09606654057831587 0.20895252899959002
 0.034406870769596316 0.08058686484404028
 0.17860424945606784 0.15889356289089368 -0.008626900723716042 -0.00834188070731376 0.010533998092345538 0.0025230310070484922 0.034393801797967936 0.08056524166319232
 -0.34832649734720644 0.23848081449848074
1.24 0.3741167584774291 0.35698802537001206 0.00847999920353135 0.10878410340243883 -0.058923510025703604 -0.07829280532419433 -0.18513663900797547 -0.24831061140145733
 0.20080227099559717 0.14254470131649613
 0.008345297288353707 0.10871283222447653 0.5023556970719053 -0.1510721932203136 -0.00918314179658599 0.011995414505362272 0.009904497616895413 0.012119344907037017
 -0.010450432905949809 -0.0067396656143057935
 -0.058791846163571776 -0.07829476363235847 -0.009181595797091163 0.011995741538452589 -0.3745715900417165 -0.1271589231695153 -0.01334801432390612 -0.004399432865600476
 0.01116956737265501 6.257684491383897e-05
 -0.18476206685179533 -0.24839831851156136 0.009907491538943098 0.012121980652141456 -0.013351738827784879 -0.004401443245792947 0.09908702881925054 0.1991455582221827
 0.045856413375295856 0.07680619529537246
 0.2005509126515291 0.14267272544319284 -0.010453803301485492 -0.006739388899073068 0.011172484325607138 6.179835604708174e-05 0.04586430130744054 0.07679776559963343
 -0.3394716259728084 0.23938913723596078
1.25 0.3917730412512343 0.3251005118458287 0.01894345250316855 0.11011749691802936 -0.0693831263840551 -0.07164814884190097 -0.20890856201471733 -0.2344822967116832
 0.22130145393331652 0.12297109164922033
 0.01882144937181262 0.11004883239727864 0.4911622641969424 -0.18032301142461193 -0.007378937933017482 0.013977288385648393 0.01208320526905492 0.010463386926493382
 -0.01196861010261456 -0.004749986340082387
 -0.06925230100399929 -0.07165833833439589 -0.0073791617042145655 0.013976306030443779 -0.40217149881874725 -0.12316279283723468 -0.014170903525069755 -0.0016365027035517856
 0.011216858268739326 -0.0025182987457458513
 -0.2085549465525105 -0.23458437882942887 0.012085757913986063 0.010467391377061349 -0.014175553000973869 -0.0016376614033658976 0.1013275147960988 0.19039059720059112
 0.056792965538041716 0.07109220336302051
 0.22107604701876588 0.12311484513672787 -0.011972269194954841 -0.004750836769880581 0.011220422659154562 -0.0025201003750881306 0.056802295608846705 0.07108518606007883
 -0.3312406344214714 0.24111806501579064
1.26 0.40641808062812856 0.2920474868170623 0.02971756849125164 0.11060751916544796 -0.07896259285921588 -0.06382618877063077 -0.23185395575370138 -0.2180522692180431
 0.23986934697039866 0.10017814776486715
 0.029562757854696933 0.110535357358775 0.4781237622252453 -0.2086609070465657 -0.005190901876335862 0.015663134875186238 0.013980863153364536 0.008437037289175109
 -0.013102964221259885 -0.002435650118706916
 -0.07882466524174277 -0.0638467135834758 -0.0051890056608589795 0.015664279503089587 -0.4291943563296467 -0.11483392665049194 -0.014421040014785842 0.0012354408274624544
 0.010668716611137517 -0.005082565870375341
 -0.23155112238607592 -0.2181974705394559 0.01399029642364832 0.008439705728318677 -0.014428927815628597 0.0012365173862936203 0.10318029158937403 0.18261007937592005
 0.06685561788080624 0.06357062590603449
 0.23963334748069917 0.10031853548113237 -0.013107999653081476 -0.0024325958782527015 0.010671085578861282 -0.005085833512328337 0.06684758129591954 0.06354570251518245
 -0.3232876611600467 0.24357652010446262
1.27 0.41804774475621587 0.2579992605567828 0.040738761757855346 0.11020837396185548 -0.08756892546791442 -0.0549470024484818 -0.2536577373413412 -0.19905142130303835
 0.25589538179420557 0.07439926837766118
 0.040544988714004984 0.11018202369020641 0.463179126567556 -0.23594046778807948 -0.0026752894363799543 0.016981604769406338 0.01554604447326172 0.0060926221542905975
 -0.013790334780790515 0.00012392599446112048
 -0.08745136433812907 -0.05499565179031069 -0.0026675495027097804 0.016984014412324663 -0.4550085034157405 -0.10238004888944066 -0.014103863724910086 0.004102575867475911
 0.009546703730649433 -0.007493957948612699
 -0.25331657243756966 -0.1992081708932986 0.015552567421642611 0.006087392206112485 -0.014106549879643864 0.00410286053865451 0.10477116010575345 0.17577778687855045