! AWR Design Environment (19377) Sat Dec 27 13:52:15 2025
! Document = 'Physical_4_way'
! nPorts: 5, nXvals: 401

# GHz S DB R 50
!Freq DBS11 AngS11 DBS12 AngS12 DBS13 AngS13 DBS14 AngS14 
!	DBS15 AngS15 
!	DBS21 AngS21 DBS22 AngS22 DBS23 AngS23 DBS24 AngS24 
!	DBS25 AngS25 
!	DBS31 AngS31 DBS32 AngS32 DBS33 AngS33 DBS34 AngS34 
!	DBS35 AngS35 
!	DBS41 AngS41 DBS42 AngS42 DBS43 AngS43 DBS44 AngS44 
!	DBS45 AngS45 
!	DBS51 AngS51 DBS52 AngS52 DBS53 AngS53 DBS54 AngS54 
!	DBS55 AngS55 
1 -6.9598593 107.87631 -7.1860759 52.66356 -7.1851394 52.723738 -7.187012 52.709592 
	-7.183948 52.662483 
	-7.1860759 52.66356 -19.658996 -80.65236 -12.442208 158.52001 -18.131633 172.74949 
	-18.129569 172.71966 
	-7.1851394 52.723738 -12.442208 158.52001 -19.635175 -79.994897 -18.129294 172.81407 
	-18.126893 172.77854 
	-7.187012 52.709592 -18.131633 172.74949 -18.129294 172.81407 -19.657769 -80.041993 
	-12.437997 158.48725 
	-7.183948 52.662483 -18.129569 172.71966 -18.126893 172.77854 -12.437997 158.48725 
	-19.671023 -80.564354 
1.01 -6.9800617 105.78043 -7.1666508 49.688612 -7.1656221 49.747684 -7.1677355 49.73281 
	-7.1646005 49.68665 
	-7.1666508 49.688612 -19.848529 -84.499966 -12.454026 156.60202 -18.217847 167.95039 
	-18.216087 167.92355 
	-7.1656221 49.747684 -12.454026 156.60202 -19.827544 -83.828793 -18.216002 168.01207 
	-18.213669 167.97944 
	-7.1677355 49.73281 -18.217847 167.95039 -18.216002 168.01207 -19.847646 -83.867549 
	-12.450478 156.57579 
	-7.1646005 49.68665 -18.216087 167.92355 -18.213669 167.97944 -12.450478 156.57579 
	-19.860202 -84.411927 
1.02 -7.0048454 103.66265 -7.1492664 46.72545 -7.1481605 46.783576 -7.1504905 46.767813 
	-7.1472909 46.722616 
	-7.1492664 46.72545 -20.051465 -88.392711 -12.459601 154.69992 -18.311213 163.11956 
	-18.309788 163.0953 
	-7.1481605 46.783576 -12.459601 154.69992 -20.033292 -87.707115 -18.30975 163.17831 
	-18.307538 163.14835 
	-7.1504905 46.767813 -18.311213 163.11956 -18.30975 163.17831 -20.051446 -87.737311 
	-12.456706 154.67916 
	-7.1472909 46.722616 -18.309788 163.0953 -18.307538 163.14835 -12.456706 154.67916 
	-20.062942 -88.304136 
1.03 -7.033952 101.52318 -7.1337281 43.773242 -7.1325625 43.830566 -7.1350819 43.813774 
	-7.1318247 43.76955 
	-7.1337281 43.773242 -20.267254 -92.333189 -12.459592 152.8151 -18.411217 158.25182 
	-18.410151 158.22969 
	-7.1325625 43.830566 -12.459592 152.8151 -20.25188 -91.632303 -18.410031 158.30776 
	-18.407985 158.28018 
	-7.1350819 43.813774 -18.411217 158.25182 -18.410031 158.30776 -20.268655 -91.654132 
	-12.457326 152.7987 
	-7.1318247 43.76955 -18.410151 158.22969 -18.407985 158.28018 -12.457326 152.7987 
	-20.278715 -92.243653 
1.04 -7.0671486 99.362614 -7.1198311 40.830905 -7.1186252 40.887551 -7.1213046 40.869616 
	-7.1179971 40.826371 
	-7.1198311 40.830905 -20.495335 -96.323787 -12.454831 150.94812 -18.517147 153.34215 
	-18.516455 153.32169 
	-7.1186252 40.887551 -12.454831 150.94812 -20.482764 -95.60658 -18.516138 153.3955 
	-18.514298 153.36994 
	-7.1213046 40.869616 -18.517147 153.34215 -18.516138 153.3955 -20.49874 -95.620693 
	-12.453159 150.93494 
	-7.1179971 40.826371 -18.516455 153.32169 -18.514298 153.36994 -12.453159 150.93494 
	-20.506976 -96.232976 
1.05 -7.1042391 97.181886 -7.10736 37.897142 -7.1061342 37.953216 -7.108943 37.934051 
	-7.1055928 37.891784 
	-7.10736 37.897142 -20.735148 -100.36667 -12.446291 149.09858 -18.628098 148.38594 
	-18.627785 148.36666 
	-7.1061342 37.953216 -12.446291 149.09858 -20.725409 -99.631935 -18.627176 148.43703 
	-18.625573 148.41311 
	-7.108943 37.934051 -18.628098 148.38594 -18.627176 148.43703 -20.741166 -99.639484 
	-12.445166 149.08753 
	-7.1055928 37.891784 -18.627785 148.36666 -18.625573 148.41311 -12.445166 149.08753 
	-20.747183 -100.27441 
1.06 -7.1450757 94.982286 -7.0960885 34.970492 -7.0948639 35.026074 -7.0977713 35.005623 
	-7.0943858 34.964328 
	-7.0960885 34.970492 -20.986154 -104.46377 -12.435054 147.26515 -18.742985 143.37935 
	-18.743044 143.36078 
	-7.0948639 35.026074 -12.435054 147.26515 -20.979304 -103.71014 -18.742075 143.42863 
	-18.740731 143.40591 
	-7.0977713 35.005623 -18.742985 143.37935 -18.742075 143.42863 -20.995407 -103.71279 
	-12.434417 147.25514 
	-7.0943858 34.964328 -18.743044 143.36078 -18.740731 143.40591 -12.434417 147.25514 
	-20.998809 -104.37004 
1.07 -7.1895691 92.765392 -7.0857809 32.049367 -7.0845784 32.104514 -7.087554 32.082753 
	-7.0841406 32.042418 
	-7.0857809 32.049367 -21.247847 -108.61685 -12.422268 145.44549 -18.860578 138.31964 
	-18.860992 138.30133 
	-7.0845784 32.104514 -12.422268 145.44549 -21.243987 -107.84277 -18.859622 138.3676 
	-18.858546 138.34566 
	-7.087554 32.082753 -18.860578 138.31964 -18.859622 138.3676 -21.260968 -107.84271 
	-12.422049 145.43556 
	-7.0841406 32.042418 -18.860992 138.30133 -18.858546 138.34566 -12.422049 145.43556 
	-21.261358 -108.52183 
1.08 -7.237697 90.533028 -7.0761933 29.132105 -7.0750327 29.18685 -7.0780481 29.163785 
	-7.0746135 29.124391 
	-7.0761933 29.132105 -21.519772 -112.82751 -12.409115 143.63641 -18.979535 133.20541 
	-18.980278 133.18695 
	-7.0750327 29.18685 -12.409115 143.63641 -21.519049 -112.0313 -18.978495 133.25262 
	-18.977685 133.23101 
	-7.0780481 29.163785 -18.979535 133.20541 -18.978495 133.25262 -21.537392 -112.0312 
	-12.409238 143.62567 
	-7.0746135 29.124391 -18.980278 133.18695 -18.977685 133.23101 -12.409238 143.62567 
	-21.53438 -112.73158 
1.09 -7.2895108 88.287199 -7.067076 26.217015 -7.0659758 26.271369 -7.0690049 26.247035 
	-7.0655552 26.208557 
	-7.067076 26.217015 -21.801537 -117.09731 -12.396774 141.83387 -19.09846 128.0369 
	-19.099496 128.0179 
	-7.0659758 26.271369 -12.396774 141.83387 -21.804158 -116.27718 -19.09732 128.08391 
	-19.096761 128.06221 
	-7.0690049 26.247035 -19.09846 128.0369 -19.09732 128.08391 -21.824282 -116.28015 
	-12.397158 141.82156 
	-7.0655552 26.208557 -19.099496 128.0179 -19.096761 128.06221 -12.397158 141.82156 
	-21.81748 -117.00107 
1.1 -7.3451402 86.030021 -7.0581772 23.302422 -7.0571535 23.356373 -7.0601736 23.330831 
	-7.0567142 23.293241 
	-7.0581772 23.302422 -22.09282 -121.42788 -12.386392 140.03314 -19.215963 122.81603 
	-19.21725 122.79619 
	-7.0571535 23.356373 -12.386392 140.03314 -22.09906 -120.58197 -19.214729 122.86339 
	-19.214395 122.84122 
	-7.0601736 23.330831 -19.215963 122.81603 -19.214729 122.86339 -22.121303 -120.59151 
	-12.386951 140.01864 
	-7.0567142 23.293241 -19.21725 122.79619 -19.214395 122.84122 -12.386951 140.01864 
	-22.110331 -121.33216 
1.11 -7.4047956 83.763638 -7.0492458 20.386707 -7.0483122 20.440227 -7.0513045 20.413559 
	-7.0478398 20.376824 
	-7.0492458 20.386707 -22.393379 -125.82108 -12.379051 138.2289 -19.330727 117.54654 
	-19.332218 117.52563 
	-7.0483122 20.440227 -12.379051 138.2289 -22.403585 -124.94752 -19.329424 117.59473 
	-19.329279 117.57176 
	-7.0513045 20.413559 -19.330727 117.54654 -19.329424 117.59473 -22.428195 -124.96736 
	-12.379699 138.21172 
	-7.0478398 20.376824 -19.332218 117.52563 -19.329279 117.57176 -12.379699 138.21172 
	-22.412677 -125.72692 
1.12 -7.4687674 81.490151 -7.0400369 17.468348 -7.0392036 17.521392 -7.042154 17.4937 
	-7.0386873 17.457782 
	-7.0400369 17.468348 -22.703041 -130.27912 -12.375746 136.4154 -19.44158 112.23386 
	-19.443224 112.21172 
	-7.0392036 17.521392 -12.375746 136.4154 -22.717649 -129.37611 -19.440252 112.28327 
	-19.44025 112.25924 
	-7.042154 17.4937 -19.44158 112.23386 -19.440252 112.28327 -22.74477 -129.41017 
	-12.376398 136.39521 
	-7.0386873 17.457782 -19.443224 112.21172 -19.44025 112.25924 -12.376398 136.39521 
	-22.724328 -130.18779 
1.13 -7.5374238 79.211535 -7.0303156 14.545947 -7.0295897 14.598461 -7.0324888 14.569857 
	-7.0290222 14.534718 
	-7.0303156 14.545947 -23.021702 -134.80479 -12.377363 134.58658 -19.547561 106.88489 
	-19.54931 106.86145 
	-7.0295897 14.598461 -12.377363 134.58658 -23.041235 -133.87069 -19.546266 106.93579 
	-19.546357 106.91054 
	-7.0324888 14.569857 -19.547561 106.88489 -19.546266 106.93579 -23.070906 -133.92289 
	-12.377938 134.5632 
	-7.0290222 14.534718 -19.54931 106.86145 -19.546357 106.91054 -12.377938 134.5632 
	-23.045153 -134.71776 
1.14 -7.6112049 76.929565 -7.0198627 11.618259 -7.0192473 11.670181 -7.0220909 11.640784 
	-7.0186255 11.606383 
	-7.0198627 11.618259 -23.3493 -139.40165 -12.38466 132.73625 -19.64798 101.50771 
	-19.649788 101.48296 
	-7.0192473 11.670181 -12.38466 132.73625 -23.374379 -138.43504 -19.646782 101.56022 
	-19.646915 101.53366 
	-7.0220909 11.640784 -19.64798 101.50771 -19.646782 101.56022 -23.40653 -138.50918 
	-12.385082 132.70965 
	-7.0186255 11.606383 -19.649788 101.48296 -19.646915 101.53366 -12.385082 132.70965 
	-23.375063 -139.32055 
1.15 -7.6906164 74.645756 -7.0084791 8.6842078 -7.007974 8.7354739 -7.0107629 8.705403 
	-7.0072984 8.6717003 
	-7.0084791 8.6842078 -23.68579 -144.07416 -12.398254 130.85826 -19.742455 96.111087 
	-19.744284 96.085086 
	-7.007974 8.7354739 -12.398254 130.85826 -23.717139 -143.07399 -19.741423 96.165189 
	-19.741547 96.137333 
	-7.0107629 8.705403 -19.742455 96.111087 -19.741423 96.165189 -23.751596 -143.17364 
	-12.398456 130.82853 
	-7.0072984 8.6717003 -19.744284 96.085086 -19.741547 96.137333 -12.398456 130.82853 
	-23.71398 -144.00076 
1.16 -7.7762203 72.361302 -6.9959914 5.7428942 -6.9955928 5.793443 -6.9983325 5.7628112 
	-6.9948677 5.7297686 
	-6.9959914 5.7428942 -24.031104 -148.82789 -12.418613 128.94661 -19.830943 90.703991 
	-19.832762 90.676862 
	-6.9955928 5.793443 -12.418613 128.94661 -24.069549 -147.79361 -19.830141 90.759516 
	-19.830208 90.730458 
	-6.9983325 5.7628112 -19.830943 90.703991 -19.830141 90.759516 -24.106044 -147.9219 
	-12.418536 128.91398 
	-6.9948677 5.7297686 -19.832762 90.676862 -19.830208 90.730458 -12.418536 128.91398 
	-24.061799 -148.76406 
1.17 -7.8686246 70.077037 -6.9822559 2.793601 -6.9819569 2.8433779 -6.9846573 2.8122864 
	-6.9811898 2.7798685 
	-6.9822559 2.793601 -24.3851 -153.6696 -12.446047 126.99564 -19.913731 85.295047 
	-19.915519 85.26694 
	-6.9819569 2.8433779 -12.446047 126.99564 -24.431569 -152.60128 -19.913211 85.351691 
	-19.913185 85.321599 
	-6.9846573 2.8122864 -19.913731 85.295047 -19.913211 85.351691 -24.469754 -152.76084 
	-12.445644 126.96046 
	-6.9811898 2.7798685 -19.915519 85.26694 -19.913185 85.321599 -12.445644 126.96046 
	-24.418339 -153.61729 
1.18 -7.9684726 67.793406 -6.967163 -0.16421417 -6.9669539 -0.1152535 -6.9696284 -0.14671954 
	-6.966155 -0.17854455 
	-6.967163 -0.16421417 -24.747495 -158.60727 -12.480704 125.00018 -19.991412 79.892008 
	-19.993161 79.863085 
	-6.9669539 -0.1152535 -12.480704 125.00018 -24.80302 -157.50582 -19.991214 79.949357 
	-19.991067 79.918455 
	-6.9696284 -0.14671954 -19.991412 79.892008 -19.991214 79.949357 -24.842483 -157.69864 
	-12.479944 124.9629 
	-6.966155 -0.17854455 -19.993161 79.863085 -19.991067 79.918455 -12.479944 124.9629 
	-24.783281 -158.56848 
1.19 -8.0764312 65.510447 -6.9506399 -3.1309312 -6.9505088 -3.0828171 -6.9531739 -3.1145935 
	-6.9496906 -3.1458527 
	-6.9506399 -3.1309312 -25.117799 -163.65012 -12.522579 122.95573 -20.064844 74.501298 
	-20.066556 74.471715 
	-6.9505088 -3.0828171 -12.522579 122.95573 -25.183501 -162.5174 -20.064987 74.558864 
	-20.064703 74.527409 
	-6.9531739 -3.1145935 -20.064844 74.501298 -20.064987 74.558864 -25.223794 -162.74481 
	-12.52144 122.91688 
	-6.9496906 -3.1458527 -20.066556 74.471715 -20.064703 74.527409 -12.52144 122.91688 
	-25.156094 -163.62682 
1.2 -8.1931795 63.227794 -6.9326532 -6.1067861 -6.9325867 -6.0595325 -6.9352607 -6.091579 
	-6.9317632 -6.1222941 
	-6.9326532 -6.1067861 -25.495228 -168.80837 -12.571509 120.85858 -20.135082 69.12766 
	-20.136768 69.097543 
	-6.9325867 -6.0595325 -12.571509 120.85858 -25.572307 -167.64745 -20.135564 69.184919 
	-20.135139 69.15318 
	-6.9352607 -6.091579 -20.135082 69.12766 -20.135564 69.184919 -25.612965 -167.91001 
	-12.56999 120.81874 
	-6.9317632 -6.1222941 -20.136768 69.097543 -20.135139 69.15318 -12.56999 120.81874 
	-25.535958 -168.80252 
1.21 -8.3226791 60.949271 -6.9118861 -9.1032555 -6.9118611 -9.0566095 -6.9145981 -9.0893037 
	-6.9110466 -9.1196701 
	-6.9118861 -9.1032555 -25.883362 -174.16626 -12.627265 118.63605 -20.209548 63.880959 
	-20.211254 63.849991 
	-6.9118611 -9.0566095 -12.627265 118.63605 -25.97354 -172.98304 -20.210273 63.937622 
	-20.209754 63.905573 
	-6.9145981 -9.0893037 -20.209548 63.880959 -20.210273 63.937622 -26.01364 -173.27938 
	-12.625385 118.59573 
	-6.9110466 -9.1196701 -20.211254 63.849991 -20.209754 63.905573 -12.625385 118.59573 
	-25.926753 -174.18576 
1.22 -8.4675587 58.671406 -6.8873782 -12.125556 -6.8873769 -12.079084 -6.8902359 -12.11311 
	-6.8865651 -12.143381 
	-6.8873782 -12.125556 -26.279437 -179.80172 -12.687482 116.24893 -20.298608 58.812159 
	-20.300375 58.779638 
	-6.8873769 -12.079084 -12.687482 116.24893 -26.384746 -178.60618 -20.299431 58.868382 
	-20.298883 58.83566 
	-6.8902359 -12.11311 -20.298608 58.812159 -20.299431 58.868382 -26.423102 -178.93288 
	-12.685276 116.20837 
	-6.8865651 -12.143381 -20.300375 58.779638 -20.298883 58.83566 -12.685276 116.20837 
	-26.325606 -179.86006 
1.23 -8.624385 56.380066 -6.8606303 -15.160842 -6.8606584 -15.114342 -6.8636409 -15.15003 
	-6.8598208 -15.180236 
	-6.8606303 -15.160842 -26.670715 174.33771 -12.74934 113.78588 -20.400421 53.787643 
	-20.40223 53.753146 
	-6.8606584 -15.114342 -12.74934 113.78588 -26.792588 175.53403 -20.401287 53.843769 
	-20.400714 53.810091 
	-6.8636409 -15.15003 -20.400421 53.787643 -20.401287 53.843769 -26.828559 175.17898 
	-12.746836 113.74504 
	-6.8598208 -15.180236 -20.40223 53.753146 -20.400714 53.810091 -12.746836 113.74504 
	-26.719111 174.23151 
1.24 -8.7881176 54.062976 -6.8339498 -18.196381 -6.8340315 -18.149966 -6.8370862 -18.18713 
	-6.8331367 -18.217102 
	-6.8339498 -18.196381 -27.046528 168.36258 -12.812311 111.36136 -20.503645 48.659431 
	-20.505427 48.62304 
	-6.8340315 -18.149966 -12.812311 111.36136 -27.185554 169.54965 -20.504611 48.715754 
	-20.503957 48.681109 
	-6.8370862 -18.18713 -20.503645 48.659431 -20.504611 48.715754 -27.21911 169.16393 
	-12.809515 111.31983 
	-6.8331367 -18.217102 -20.505427 48.62304 -20.503957 48.681109 -12.809515 111.31983 
	-27.096233 168.20788 
1.25 -8.9541854 51.714861 -6.8095506 -21.224847 -6.8097159 -21.178903 -6.8127643 -21.216886 
	-6.8087502 -21.246356 
	-6.8095506 -21.224847 -27.403094 162.39763 -12.878551 109.07115 -20.591974 43.329704 
	-20.593637 43.292035 
	-6.8097159 -21.178903 -12.878551 109.07115 -27.559193 163.56948 -20.593192 43.386235 
	-20.592358 43.350978 
	-6.8127643 -21.216886 -20.591974 43.329704 -20.593192 43.386235 -27.590628 163.14507 
	-12.875448 109.02821 
	-6.8087502 -21.246356 -20.593637 43.292035 -20.592358 43.350978 -12.875448 109.02821 
	-27.453389 162.20244 
1.26 -9.1252644 49.348374 -6.7865424 -24.256261 -6.7868084 -24.211089 -6.7898024 -24.249396 
	-6.785767 -24.278229 
	-6.7865424 -24.256261 -27.744679 156.42485 -12.951722 106.86273 -20.665119 37.886484 
	-20.66662 37.848073 
	-6.7868084 -24.211089 -12.951722 106.86273 -27.918045 157.57386 -20.666699 37.943011 
	-20.665629 37.907545 
	-6.7898024 -24.249396 -20.665119 37.886484 -20.666699 37.943011 -27.946958 157.10499 
	-12.948279 106.81816 
	-6.785767 -24.278229 -20.66662 37.848073 -20.665629 37.907545 -12.948279 106.81816 
	-27.795114 156.19479 
1.27 -9.3064052 46.975909 -6.7630122 -27.301624 -6.763384 -27.257335 -6.766309 -27.295832 
	-6.7622548 -27.324021 
	-6.7630122 -27.301624 -28.072915 150.3693 -13.033356 104.64449 -20.733211 32.443455 
	-20.734549 32.404477 
	-6.763384 -27.257335 -13.033356 104.64449 -28.26405 151.48228 -20.735189 32.499757 
	-20.733874 32.464317 
	-6.766309 -27.295832 -20.733211 32.443455 -20.735189 32.499757 -28.289349 150.96987 
	-13.029548 104.59869 
	-6.7622548 -27.324021 -20.734549 32.404477 -20.733874 32.464317 -13.029548 104.59869 
	-28.122913 150.10409 
1.28 -9.4982823 44.598461 -6.7389984 -30.360871 -6.7394776 -30.317575 -6.7423229 -30.356121 
	-6.7382528 -30.383665 
	-6.7389984 -30.360871 -28.386314 144.24719 -13.12368 102.41506 -20.796677 27.00845 
	-20.797859 26.969058 
	-6.7394776 -30.317575 -13.12368 102.41506 -28.595407 145.30989 -20.79908 27.064246 
	-20.797521 27.029068 
	-6.7423229 -30.356121 -20.796677 27.00845 -20.79908 27.064246 -28.616015 144.75661 
	-13.11949 102.3685 
	-6.7382528 -30.383665 -20.797859 26.969058 -20.797521 27.029068 -13.11949 102.3685 
	-28.435298 143.94734 
1.29 -9.7016202 42.217002 -6.7145509 -33.433776 -6.7151359 -33.391577 -6.7178946 -33.43003 
	-6.7138114 -33.456927 
	-6.7145509 -33.433776 -28.68375 138.07676 -13.222841 100.17312 -20.856195 21.588795 
	-20.857234 21.54911 
	-6.7151359 -33.391577 -13.222841 100.17312 -28.910633 139.07428 -20.859038 21.643765 
	-20.857245 21.609073 
	-6.7178946 -33.43003 -20.856195 21.588795 -20.859038 21.643765 -28.925558 138.48452 
	-13.218265 100.12629 
	-6.7138114 -33.456927 -20.857234 21.54911 -20.857245 21.609073 -13.218265 100.12629 
	-28.731172 137.74358 
1.3 -9.9171945 39.832479 -6.6897314 -36.519963 -6.6904175 -36.478953 -6.6930867 -36.517175 
	-6.6889936 -36.543428 
	-6.6897314 -36.519963 -28.964509 131.87783 -13.330906 97.917428 -20.912663 16.190954 
	-20.913577 16.151053 
	-6.6904175 -36.478953 -13.330906 97.917428 -29.208631 132.79519 -20.915951 16.244754 
	-20.913941 16.210747 
	-6.6930867 -36.517175 -20.912663 16.190954 -20.915951 16.244754 -29.21704 132.17494 
	-13.325952 97.870863 
	-6.6889936 -36.543428 -20.913577 16.151053 -20.913941 16.210747 -13.325952 97.870863 
	-29.009885 131.51338 
1.31 -10.145835 37.445807 -6.6646138 -39.61892 -6.6653934 -39.579179 -6.6679738 -39.617037 
	-6.663874 -39.642653 
	-6.6646138 -39.61892 -29.228328 125.67126 -13.447863 95.64693 -20.967165 10.82022 
	-20.967974 10.780135 
	-6.6653934 -39.579179 -13.447863 95.64693 -29.488752 126.49402 -20.97089 10.872506 
	-20.968687 10.839349 
	-6.6679738 -39.617037 -20.967165 10.82022 -20.97089 10.872506 -29.490036 125.85053 
	-13.442552 95.60116 
	-6.663874 -39.642653 -20.967974 10.780135 -20.968687 10.839349 -13.442552 95.60116 
	-29.271261 125.27821 
1.32 -10.388426 35.057873 -6.6392835 -42.730017 -6.6401466 -42.691608 -6.6426429 -42.728983 
	-6.6385394 -42.75397 
	-6.6392835 -42.730017 -29.475403 119.47842 -13.573616 93.360773 -21.020923 5.4804882 
	-21.021649 5.4401996 
	-6.6401466 -42.691608 -13.573616 93.360773 -29.75083 120.19322 -21.025065 5.5309287 
	-21.022695 5.4987451 
	-6.6426429 -42.728983 -21.020923 5.4804882 -21.025065 5.5309287 -29.744648 119.53463 
	-13.567984 93.316335 
	-6.6385394 -42.75397 -21.021649 5.4401996 -21.022695 5.4987451 -13.567984 93.316335 
	-29.515607 119.0599 
1.33 -10.645915 32.669531 -6.6138373 -45.852529 -6.6147719 -45.815496 -6.6171919 -45.852281 
	-6.6130878 -45.876653 
	-6.6138373 -45.852529 -29.70638 113.3206 -13.707994 91.058391 -21.07524 0.17409861 
	-21.075904 0.13353692 
	-6.6147719 -45.815496 -13.707994 91.058391 -29.995198 113.91577 -21.079769 0.22239796 
	-21.077266 0.19126308 
	-6.6171919 -45.852281 -21.07524 0.17409861 -21.079769 0.22239796 -29.98151 113.25056 
	-13.702086 91.015809 
	-6.6130878 -45.876653 -21.075904 0.13353692 -21.077266 0.19126308 -13.702086 91.015809 
	-29.743693 112.87999 
1.34 -10.919314 30.281615 -6.5883823 -48.985653 -6.5893748 -48.950016 -6.5917294 -48.986127 
	-6.5876275 -49.009901 
	-6.5883823 -48.985653 -29.922326 107.2186 -13.850745 88.739564 -21.131454 -5.0982296 
	-21.132073 -5.1391805 
	-6.5893748 -48.950016 -13.850745 88.739564 -30.222678 107.68458 -21.136331 -5.0523191 
	-21.133725 -5.0823795 
	-6.5917294 -48.986127 -21.131454 -5.0982296 -21.136331 -5.0523191 -30.201745 107.02104 
	-13.844621 88.699335 
	-6.5876275 -49.009901 -21.132073 -5.1391805 -21.133725 -5.0823795 -13.844621 88.699335 
	-29.956712 106.75932 
1.35 -11.20971 27.894947 -6.5630344 -52.128531 -6.5640705 -52.09429 -6.5663729 -52.129662 
	-6.5622758 -52.152858 
	-6.5630344 -52.128531 -30.124685 101.1923 -14.001547 86.404482 -21.190877 -10.33739 
	-21.191465 -10.378888 
	-6.5640705 -52.09429 -14.001547 86.404482 -30.434554 101.52191 -21.196056 -10.294057 
	-21.193381 -10.323066 
	-6.5663729 -52.129662 -21.190877 -10.33739 -21.196056 -10.294057 -30.406921 100.86766 
	-13.995277 86.367061 
	-6.5622758 -52.152858 -21.191465 -10.378888 -21.193381 -10.323066 -13.995277 86.367061 
	-30.15623 100.71762 
1.36 -11.518272 25.510357 -6.5379172 -55.280273 -6.5389822 -55.247403 -6.5412474 -55.281995 
	-6.5371574 -55.304637 
	-6.5379172 -55.280273 -30.315221 95.260412 -14.160007 84.0538 -21.254751 -15.545815 
	-21.255315 -15.588052 
	-6.5389822 -55.247403 -14.160007 84.0538 -30.632525 95.449031 -21.260179 -15.505177 
	-21.257465 -15.533207 
	-6.5412474 -55.281995 -21.254751 -15.545815 -21.260179 -15.505177 -30.598975 94.810531 
	-14.153674 84.019589 
	-6.5371574 -55.304637 -21.255315 -15.588052 -21.257465 -15.533207 -14.153674 84.019589 
	-30.344118 94.773256 
1.37 -11.846267 23.128701 -6.5131594 -58.439977 -6.5142391 -58.408429 -6.5164832 -58.442227 
	-6.5124023 -58.464343 
	-6.5131594 -58.439977 -30.49596 89.440321 -14.325675 81.688698 -21.324199 -20.727339 
	-21.324741 -20.770532 
	-6.5142391 -58.408429 -14.325675 81.688698 -30.818646 89.485865 -21.329823 -20.689444 
	-21.327098 -20.716606 
	-6.5164832 -58.442227 -21.324199 -20.727339 -21.329823 -20.689444 -30.780145 88.868109 
	-14.31937 81.658028 
	-6.5124023 -58.464343 -21.324741 -20.770532 -21.327098 -20.716606 -14.31937 81.658028 
	-30.522495 88.943152 
1.38 -12.195075 20.750894 -6.4888932 -61.60675 -6.4899743 -61.576451 -6.4922141 -61.609468 
	-6.4881435 -61.631086 
	-6.4888932 -61.60675 -30.669138 83.748064 -14.498047 79.310926 -21.400192 -25.887026 
	-21.400705 -25.93141 
	-6.4899743 -61.576451 -14.498047 79.310926 -30.995266 83.650817 -21.405958 -25.851847 
	-21.403244 -25.87829 
	-6.4922141 -61.609468 -21.400192 -25.887026 -21.405958 -25.851847 -30.952895 83.057128 
	-14.491869 79.284049 
	-6.4881435 -61.631086 -21.400705 -25.93141 -21.403244 -25.87829 -14.491869 79.284049 
	-30.69366 83.242792 
1.39 -12.566211 18.377949 -6.4652517 -64.779723 -6.4663223 -64.750581 -6.4685743 -64.782854 
	-6.464515 -64.804007 
	-6.4652517 -64.779723 -30.837143 78.198392 -14.676579 76.922848 -21.483514 -31.030964 
	-21.483984 -31.076777 
	-6.4663223 -64.750581 -14.676579 76.922848 -31.164965 77.960732 -21.48937 -30.998398 
	-21.486685 -31.024301 
	-6.4685743 -64.782854 -21.483514 -31.030964 -21.48937 -30.998398 -31.119852 77.392694 
	-14.670633 76.89992 
	-6.464515 -64.804007 -21.483984 -31.076777 -21.486685 -31.024301 -14.670633 76.89992 
	-30.860048 77.686338 
1.4 -12.961349 16.011027 -6.4423661 -67.958072 -6.4434165 -67.929975 -6.4456962 -67.961567 
	-6.4416487 -67.982289 
	-6.4423661 -67.958072 -31.002472 72.804912 -14.860697 74.527463 -21.574741 -36.166027 
	-21.575145 -36.213505 
	-6.4434165 -67.929975 -14.860697 74.527463 -31.330493 72.430953 -21.580639 -36.135903 
	-21.577994 -36.161465 
	-6.4456962 -67.961567 -21.574741 -36.166027 -21.580639 -36.135903 -31.283748 71.888473 
	-14.855092 74.50854 
	-6.4416487 -67.982289 -21.575145 -36.213505 -21.577994 -36.161465 -14.855092 74.50854 
	-31.024178 72.286816 
1.41 -13.382362 13.651501 -6.4203635 -71.141026 -6.4213863 -71.113847 -6.4237078 -71.144843 
	-6.419672 -71.16517 
	-6.4203635 -71.141026 -31.167694 67.580305 -15.049812 72.128423 -21.67422 -41.299633 
	-21.674527 -41.348993 
	-6.4213863 -71.113847 -15.049812 72.128423 -31.494721 67.075483 -21.680119 -41.271716 
	-21.677518 -41.297149 
	-6.4237078 -71.144843 -21.67422 -41.299633 -21.680119 -41.271716 -31.447379 66.556953 
	-15.044654 72.11345 
	-6.419672 -71.16517 -21.674527 -41.348993 -21.677518 -41.297149 -15.044654 72.11345 
	-31.188626 67.056369 
1.42 -13.831361 11.301043 -6.3993638 -74.327883 -6.4003548 -74.30148 -6.4027301 -74.331989 
	-6.3987052 -74.351956 
	-6.3993638 -74.327883 -31.335418 62.536578 -15.24333 69.730025 -21.782059 -46.439478 
	-21.782229 -46.490913 
	-6.4003548 -74.30148 -15.24333 69.730025 -31.66059 61.907236 -21.787926 -46.413479 
	-21.785367 -46.438999 
	-6.4027301 -74.331989 -21.782059 -46.439478 -21.787926 -46.413479 -31.613567 61.409764 
	-15.238725 69.718834 
	-6.3987052 -74.351956 -21.782229 -46.490913 -21.785367 -46.438999 -15.238725 69.718834 
	-31.355992 62.006543 
1.43 -14.310753 8.9617318 -6.379478 -77.518014 -6.3804358 -77.492238 -6.3828744 -77.522382 
	-6.3788592 -77.542026 
	-6.379478 -77.518014 -31.508274 57.685369 -15.440673 67.337187 -21.898121 -51.59327 
	-21.898109 -51.646935 
	-6.3804358 -77.492238 -15.440673 67.337187 -31.831081 56.938344 -21.903933 -51.568855 
	-21.901407 -51.594671 
	-6.3828744 -77.522382 -21.898121 -51.59327 -21.903933 -51.568855 -31.785142 56.458037 
	-15.436719 67.329498 
	-6.3788592 -77.542026 -21.898109 -51.646935 -21.901407 -51.594671 -15.436719 67.329498 
	-31.528887 57.148602 
1.44 -14.823318 6.636205 -6.3608049 -80.710865 -6.3617315 -80.685562 -6.3642397 -80.71548 
	-6.3602327 -80.734838 
	-6.3608049 -80.710865 -31.688886 53.03828 -15.641287 64.955403 -22.022025 -56.768448 
	-22.021778 -56.824452 
	-6.3617315 -80.685562 -15.641287 64.955403 -32.009178 52.18054 -22.027771 -56.745253 
	-22.025261 -56.771559 
	-6.3642397 -80.71548 -22.022025 -56.768448 -22.027771 -56.745253 -31.964923 51.7128 
	-15.638073 64.950822 
	-6.3602327 -80.734838 -22.021778 -56.824452 -22.025261 -56.771559 -15.638073 64.950822 
	-31.709914 52.49388 
1.45 -15.3723 4.3278547 -6.3434297 -83.905967 -6.3443304 -83.880981 -6.3469114 -83.910821 
	-6.3429103 -83.929929 
	-6.3434297 -83.905967 -31.879857 48.607262 -15.844657 62.590672 -22.153155 -61.9719 
	-22.152615 -62.030293 
	-6.3443304 -83.880981 -15.844657 62.590672 -32.197852 47.645588 -22.158837 -61.949545 
	-22.15632 -61.976508 
	-6.3469114 -83.910821 -22.153155 -61.9719 -22.158837 -61.949545 -32.155703 47.185406 
	-15.842261 62.588705 
	-6.3429103 -83.929929 -22.152615 -62.030293 -22.15632 -61.976508 -15.842261 62.588705 
	-31.901657 48.05416 
1.46 -15.961537 2.041105 -6.3274218 -87.102926 -6.3283053 -87.078103 -6.3309587 -87.10802 
	-6.3269609 -87.126912 
	-6.3274218 -87.102926 -32.083753 44.405038 -16.050324 60.249406 -22.290675 -67.20968 
	-22.28978 -67.270446 
	-6.3283053 -87.078103 -16.050324 60.249406 -32.400029 43.345784 -22.296308 -67.187783 
	-22.293754 -67.215539 
	-6.3309587 -87.10802 -22.290675 -67.20968 -22.296308 -67.187783 -32.360243 42.888005 
	-16.048803 60.249468 
	-6.3269609 -87.126912 -22.28978 -67.270446 -22.293754 -67.215539 -16.048803 60.249468 
	-32.106667 43.842105 
1.47 -16.595636 -0.21820061 -6.3128336 -90.301421 -6.3137115 -90.276617 -6.3164335 -90.306764 
	-6.312436 -90.325474 
	-6.3128336 -90.301421 -32.303074 40.445598 -16.257885 57.938324 -22.433553 -72.486728 
	-22.432239 -72.54978 
	-6.3137115 -90.276617 -16.257885 57.938324 -32.618575 39.294529 -22.439165 -72.464931 
	-22.436542 -72.493569 
	-6.3164335 -90.306764 -22.433553 -72.486728 -22.439165 -72.464931 -32.581252 38.834087 
	-16.257282 57.939755 
	-6.312436 -90.325474 -22.432239 -72.54978 -22.436542 -72.493569 -16.257282 57.939755 
	-32.327438 39.871743 
1.48 -17.280196 -2.4422388 -6.2996991 -93.5012 -6.3005859 -93.47628 -6.3033691 -93.506809 
	-6.2993688 -93.525368 
	-6.2996991 -93.5012 -32.540224 36.744768 -16.467008 55.664322 -22.580594 -77.806616 
	-22.578798 -77.87179 
	-6.3005859 -93.47628 -16.467008 55.664322 -32.856265 35.506987 -22.586228 -77.784596 
	-22.583498 -77.81416 
	-6.3033691 -93.506809 -22.580594 -77.806616 -22.586228 -77.784596 -32.82137 35.039093 
	-16.467341 55.666406 
	-6.2993688 -93.525368 -22.578798 -77.87179 -22.583498 -77.81416 -16.467341 55.666406 
	-32.566381 36.15904 
1.49 -18.022143 -4.6203745 -6.2880335 -96.702069 -6.2889463 -96.676911 -6.2917798 -96.707967 
	-6.2877732 -96.726405 
	-6.2880335 -96.702069 -32.797465 33.320878 -16.677431 53.434328 -22.730486 -83.171316 
	-22.728147 -83.238369 
	-6.2889463 -96.676911 -16.677431 53.434328 -33.115744 32.000861 -22.736195 -83.148814 
	-22.733321 -83.179288 
	-6.2917798 -96.707967 -22.730486 -83.171316 -22.736195 -83.148814 -33.083129 31.521151 
	-16.678697 53.436315 
	-6.2877732 -96.726405 -22.728147 -83.238369 -22.733321 -83.179288 -16.678697 53.436315 
	-32.825782 32.722564 
1.5 -18.830187 -6.7378859 -6.2778328 -99.903882 -6.2787907 -99.878382 -6.2816608 -99.910096 
	-6.2776443 -99.928442 
	-6.2778328 -99.903882 -33.076845 30.195538 -16.888962 51.255159 -22.881849 -88.581028 
	-22.878912 -88.649642 
	-6.2787907 -99.878382 -16.888962 51.255159 -33.399466 28.797301 -22.8877 -88.557862 
	-22.884643 -88.589174 
	-6.2816608 -99.910096 -22.881849 -88.581028 -22.8877 -88.557862 -33.368899 28.301942 
	-16.891133 51.256285 
	-6.2776443 -99.928442 -22.878912 -88.649642 -22.884643 -88.589174 -16.891133 51.256285 
	-33.107727 29.58428 
1.51 -19.716648 -8.7685489 -6.2691296 -103.10609 -6.2701485 -103.08014 -6.2730511 -103.11261 
	-6.2690208 -103.1309 
	-6.2691296 -103.10609 -33.379858 27.383101 -17.101701 49.126075 -23.034403 -94.038276 
	-23.030823 -94.108054 
	-6.2701485 -103.08014 -17.101701 49.126075 -33.70928 25.91177 -23.040458 -94.014377 
	-23.037179 -94.046346 
	-6.2730511 -103.11261 -23.034403 -94.038276 -23.040458 -94.014377 -33.680654 25.394953 
	-17.104736 49.125558 
	-6.2690208 -103.1309 -23.030823 -94.108054 -23.037179 -94.046346 -17.104736 49.125558 
	-33.413739 26.758308 
1.52 -20.697966 -10.675353 -6.2619516 -106.30826 -6.2630447 -106.28174 -6.2659867 -106.31503 
	-6.2619374 -106.33335 
	-6.2619516 -106.30826 -33.707178 24.901863 -17.315666 47.045108 -23.187724 -99.546674 
	-23.183469 -99.617157 
	-6.2630447 -106.28174 -17.315666 47.045108 -34.046276 23.364464 -23.194038 -99.522071 
	-23.190499 -99.554403 
	-6.2659867 -106.31503 -23.187724 -99.546674 -23.194038 -99.522071 -34.019586 22.817863 
	-17.319505 47.042154 
	-6.2619374 -106.33335 -23.183469 -99.617157 -23.190499 -99.554403 -17.319505 47.042154 
	-33.744513 24.262814 
1.53 -21.795086 -12.409933 -6.2562574 -109.51048 -6.2574395 -109.48328 -6.2604262 -109.51747 
	-6.256352 -109.53587 