! AWR Design Environment (19377) Sat Dec 27 02:53:11 2025
! Document = 'Physical_2_way'
! nPorts: 3, nXvals: 401

# GHz S DB R 50
!Freq DBS11 AngS11 DBS12 AngS12 DBS13 AngS13 
!	DBS21 AngS21 DBS22 AngS22 DBS23 AngS23 
!	DBS31 AngS31 DBS32 AngS32 DBS33 AngS33 
1 -12.258718 114.01994 -3.3305352 -75.940157 -3.3294915 -75.942 
	-3.3305352 -75.940157 -20.661723 0.66507661 -11.673107 -106.2546 
	-3.3294915 -75.942 -11.673107 -106.2546 -20.657927 0.75748275 
1.01 -12.315365 113.37395 -3.3278137 -76.724579 -3.3267729 -76.726522 
	-3.3278137 -76.724579 -20.793949 -0.69131422 -11.762628 -107.03552 
	-3.3267729 -76.726522 -11.762628 -107.03552 -20.790062 -0.59650703 
1.02 -12.372797 112.72883 -3.3250552 -77.508886 -3.3240173 -77.510926 
	-3.3250552 -77.508886 -20.926369 -2.0468054 -11.852274 -107.81727 
	-3.3240173 -77.510926 -11.852274 -107.81727 -20.922392 -1.9495374 
1.03 -12.431019 112.0846 -3.322259 -78.29307 -3.3212241 -78.295205 
	-3.322259 -78.29307 -21.058985 -3.4015662 -11.942059 -108.59991 
	-3.3212241 -78.295205 -11.942059 -108.59991 -21.054917 -3.3017759 
1.04 -12.490039 111.44125 -3.3194245 -79.077126 -3.3183927 -79.079355 
	-3.3194245 -79.077126 -21.191795 -4.7557599 -12.031996 -109.38351 
	-3.3183927 -79.079355 -12.031996 -109.38351 -21.187636 -4.6533842 
1.05 -12.549862 110.7988 -3.3165516 -79.861047 -3.3155231 -79.863368 
	-3.3165516 -79.861047 -21.324798 -6.1095438 -12.122099 -110.16814 
	-3.3155231 -79.863368 -12.122099 -110.16814 -21.320547 -6.0045181 
1.06 -12.610496 110.15725 -3.3136405 -80.644827 -3.3126153 -80.647238 
	-3.3136405 -80.644827 -21.457991 -7.4630687 -12.212382 -110.95385 
	-3.3126153 -80.647238 -12.212382 -110.95385 -21.453649 -7.3553264 
1.07 -12.671946 109.5166 -3.3106917 -81.428463 -3.3096699 -81.430962 
	-3.3106917 -81.428463 -21.591371 -8.8164784 -12.30286 -111.74071 
	-3.3096699 -81.430962 -12.30286 -111.74071 -21.586938 -8.7059514 
1.08 -12.734219 108.87686 -3.3077058 -82.211948 -3.3066874 -82.214534 
	-3.3077058 -82.211948 -21.724935 -10.16991 -12.393547 -112.52878 
	-3.3066874 -82.214534 -12.393547 -112.52878 -21.720411 -10.056528 
1.09 -12.797322 108.23804 -3.3046837 -82.99528 -3.303669 -82.997951 
	-3.3046837 -82.99528 -21.85868 -11.523492 -12.48446 -113.3181 
	-3.303669 -82.997951 -12.48446 -113.3181 -21.854064 -11.407183 
1.1 -12.861261 107.60015 -3.3016268 -83.778456 -3.3006159 -83.781209 
	-3.3016268 -83.778456 -21.9926 -12.877347 -12.575613 -114.10875 
	-3.3006159 -83.781209 -12.575613 -114.10875 -21.987892 -12.758038 
1.11 -12.926041 106.96319 -3.2985365 -84.561474 -3.2975294 -84.564308 
	-3.2985365 -84.561474 -22.12669 -14.231588 -12.667024 -114.90077 
	-3.2975294 -84.564308 -12.667024 -114.90077 -22.121892 -14.109202 
1.12 -12.99167 106.32718 -3.2954144 -85.344333 -3.2944113 -85.347245 
	-3.2954144 -85.344333 -22.260946 -15.58632 -12.758708 -115.69422 
	-3.2944113 -85.347245 -12.758708 -115.69422 -22.256058 -15.460779 
1.13 -13.058153 105.69212 -3.2922626 -86.127031 -3.2912636 -86.130021 
	-3.2922626 -86.127031 -22.395361 -16.941641 -12.850683 -116.48916 
	-3.2912636 -86.130021 -12.850683 -116.48916 -22.390383 -16.812865 
1.14 -13.125496 105.05803 -3.2890831 -86.909571 -3.2880883 -86.912637 
	-3.2890831 -86.909571 -22.52993 -18.297637 -12.942967 -117.28563 
	-3.2880883 -86.912637 -12.942967 -117.28563 -22.524863 -18.165544 
1.15 -13.193705 104.42491 -3.2858782 -87.691954 -3.2848877 -87.695094 
	-3.2858782 -87.691954 -22.664647 -19.654389 -13.035577 -118.0837 
	-3.2848877 -87.695094 -13.035577 -118.0837 -22.659492 -19.518896 
1.16 -13.262787 103.79279 -3.2826504 -88.474183 -3.2816644 -88.477394 
	-3.2826504 -88.474183 -22.799506 -21.011968 -13.128531 -118.88341 
	-3.2816644 -88.477394 -13.128531 -118.88341 -22.794264 -20.872987 
1.17 -13.332748 103.16167 -3.2794023 -89.256261 -3.2784209 -89.259543 
	-3.2794023 -89.256261 -22.934501 -22.370435 -13.221849 -119.68482 
	-3.2784209 -89.259543 -13.221849 -119.68482 -22.929172 -22.227878 
1.18 -13.403593 102.53158 -3.2761367 -90.038195 -3.2751601 -90.041546 
	-3.2761367 -90.038195 -23.069626 -23.729844 -13.31555 -120.488 
	-3.2751601 -90.041546 -13.31555 -120.488 -23.064212 -23.583619 
1.19 -13.475328 101.90254 -3.2728564 -90.819989 -3.2718847 -90.823408 
	-3.2728564 -90.819989 -23.204875 -25.090238 -13.409654 -121.29299 
	-3.2718847 -90.823408 -13.409654 -121.29299 -23.199378 -24.940253 
1.2 -13.547961 101.27455 -3.2695645 -91.601652 -3.2685978 -91.605137 
	-3.2695645 -91.601652 -23.340244 -26.451655 -13.50418 -122.09985 
	-3.2685978 -91.605137 -13.50418 -122.09985 -23.334664 -26.297813 
1.21 -13.621495 100.64765 -3.2662639 -92.383192 -3.2653025 -92.386741 
	-3.2662639 -92.383192 -23.475726 -27.81412 -13.599149 -122.90866 
	-3.2653025 -92.386741 -13.599149 -122.90866 -23.470066 -27.656324 
1.22 -13.695939 100.02185 -3.2629579 -93.164618 -3.2620018 -93.16823 
	-3.2629579 -93.164618 -23.611317 -29.177654 -13.694582 -123.71946 
	-3.2620018 -93.16823 -13.694582 -123.71946 -23.605579 -29.015802 
1.23 -13.771297 99.397194 -3.2596495 -93.945941 -3.2586989 -93.949615 
	-3.2596495 -93.945941 -23.747013 -30.542267 -13.790501 -124.53233 
	-3.2586989 -93.949615 -13.790501 -124.53233 -23.741199 -30.376257 
1.24 -13.847576 98.773695 -3.256342 -94.727173 -3.2553971 -94.730907 
	-3.256342 -94.727173 -23.882811 -31.907964 -13.886927 -125.34732 
	-3.2553971 -94.730907 -13.886927 -125.34732 -23.876922 -31.737689 
1.25 -13.924783 98.151389 -3.2530386 -95.508327 -3.2520996 -95.51212 
	-3.2530386 -95.508327 -24.018707 -33.27474 -13.983881 -126.16452 
	-3.2520996 -95.51212 -13.983881 -126.16452 -24.012747 -33.100092 
1.26 -14.002923 97.530306 -3.2497425 -96.289415 -3.2488095 -96.293267 
	-3.2497425 -96.289415 -24.154699 -34.642585 -14.081388 -126.984 
	-3.2488095 -96.293267 -14.081388 -126.984 -24.14867 -34.463453 
1.27 -14.082003 96.910482 -3.2464568 -97.070454 -3.24553 -97.074363 
	-3.2464568 -97.070454 -24.290786 -36.011483 -14.179468 -127.80583 
	-3.24553 -97.074363 -14.179468 -127.80583 -24.284692 -35.827752 
1.28 -14.16203 96.291953 -3.2431847 -97.851459 -3.2422642 -97.855423 
	-3.2431847 -97.851459 -24.426968 -37.381411 -14.278146 -128.63008 
	-3.2422642 -97.855423 -14.278146 -128.63008 -24.420811 -37.192965 
1.29 -14.243011 95.67476 -3.2399292 -98.632445 -3.2390153 -98.636465 
	-3.2399292 -98.632445 -24.563244 -38.752341 -14.377444 -129.45685 
	-3.2390153 -98.636465 -14.377444 -129.45685 -24.557028 -38.559061 
1.3 -14.324951 95.058945 -3.2366935 -99.413432 -3.2357862 -99.417506 
	-3.2366935 -99.413432 -24.699616 -40.12424 -14.477387 -130.28621 
	-3.2357862 -99.417506 -14.477387 -130.28621 -24.693344 -39.926003 
1.31 -14.40786 94.444553 -3.2334802 -100.19444 -3.2325798 -100.19856 
	-3.2334802 -100.19444 -24.836087 -41.497073 -14.577996 -131.11827 
	-3.2325798 -100.19856 -14.577996 -131.11827 -24.829763 -41.293754 
1.32 -14.491743 93.831632 -3.2302924 -100.97548 -3.229399 -100.97966 
	-3.2302924 -100.97548 -24.972658 -42.8708 -14.679298 -131.9531 
	-3.229399 -100.97966 -14.679298 -131.9531 -24.966287 -42.66227 
1.33 -14.576608 93.220232 -3.2271326 -101.75657 -3.2262464 -101.76081 
	-3.2271326 -101.75657 -25.109336 -44.245377 -14.781315 -132.79082 
	-3.2262464 -101.76081 -14.781315 -132.79082 -25.102922 -44.031505 
1.34 -14.662463 92.610407 -3.2240035 -102.53774 -3.2231246 -102.54203 
	-3.2240035 -102.53774 -25.246124 -45.620762 -14.884072 -133.63152 
	-3.2231246 -102.54203 -14.884072 -133.63152 -25.239672 -45.401413 
1.35 -14.749316 92.002215 -3.2209074 -103.31901 -3.220036 -103.32335 
	-3.2209074 -103.31901 -25.38303 -46.996907 -14.987593 -134.47531 
	-3.220036 -103.32335 -14.987593 -134.47531 -25.376545 -46.771944 
1.36 -14.837175 91.395714 -3.2178466 -104.10039 -3.2169829 -104.10478 
	-3.2178466 -104.10039 -25.52006 -48.373768 -15.091903 -135.3223 
	-3.2169829 -104.10478 -15.091903 -135.3223 -25.513547 -48.143048 
1.37 -14.92605 90.790968 -3.2148232 -104.88191 -3.2139673 -104.88635 
	-3.2148232 -104.88191 -25.657222 -49.751298 -15.197025 -136.17261 
	-3.2139673 -104.88635 -15.197025 -136.17261 -25.650688 -49.514678 
1.38 -15.015948 90.188043 -3.2118391 -105.66359 -3.2109913 -105.66808 
	-3.2118391 -105.66359 -25.794527 -51.129453 -15.302986 -137.02636 
	-3.2109913 -105.66808 -15.302986 -137.02636 -25.787976 -50.886785 
1.39 -15.106879 89.587008 -3.2088962 -106.44545 -3.2080565 -106.44998 
	-3.2088962 -106.44545 -25.931983 -52.508189 -15.409808 -137.88368 
	-3.2080565 -106.44998 -15.409808 -137.88368 -25.925423 -52.259321 
1.4 -15.198853 88.987936 -3.205996 -107.2275 -3.2051645 -107.23209 
	-3.205996 -107.2275 -26.069603 -53.887466 -15.517517 -138.74469 
	-3.2051645 -107.23209 -15.517517 -138.74469 -26.06304 -53.632244 
1.41 -15.29188 88.390903 -3.2031398 -108.00978 -3.2023168 -108.01442 
	-3.2031398 -108.00978 -26.207396 -55.267247 -15.626136 -139.60954 
	-3.2023168 -108.01442 -15.626136 -139.60954 -26.200838 -55.00551 
1.42 -15.385969 87.795989 -3.2003289 -108.79229 -3.1995144 -108.79698 
	-3.2003289 -108.79229 -26.345377 -56.647497 -15.735691 -140.47835 
	-3.1995144 -108.79698 -15.735691 -140.47835 -26.33883 -56.379084 
1.43 -15.481133 87.203276 -3.1975643 -109.57507 -3.1967585 -109.57981 
	-3.1975643 -109.57507 -26.483557 -58.028186 -15.846204 -141.3513 
	-3.1967585 -109.57981 -15.846204 -141.3513 -26.477029 -57.752931 
1.44 -15.577383 86.61285 -3.1948467 -110.35812 -3.1940497 -110.36291 
	-3.1948467 -110.35812 -26.621949 -59.409291 -15.9577 -142.22851 
	-3.1940497 -110.36291 -15.9577 -142.22851 -26.61545 -59.127024 
1.45 -15.67473 86.024803 -3.1921768 -111.14148 -3.1913887 -111.14632 
	-3.1921768 -111.14148 -26.760568 -60.790792 -16.070203 -143.11016 
	-3.1913887 -111.14632 -16.070203 -143.11016 -26.754105 -60.501338 
1.46 -15.773186 85.439227 -3.189555 -111.92515 -3.1887759 -111.93004 
	-3.189555 -111.92515 -26.899428 -62.172675 -16.183736 -143.9964 
	-3.1887759 -111.93004 -16.183736 -143.9964 -26.893011 -61.875855 
1.47 -15.872764 84.85622 -3.1869815 -112.70915 -3.1862114 -112.71409 
	-3.1869815 -112.70915 -27.038541 -63.554933 -16.298322 -144.8874 
	-3.1862114 -112.71409 -16.298322 -144.8874 -27.032179 -63.250566 
1.48 -15.973479 84.275883 -3.1844562 -113.49351 -3.1836954 -113.4985 
	-3.1844562 -113.49351 -27.177923 -64.937566 -16.413984 -145.78334 
	-3.1836954 -113.4985 -16.413984 -145.78334 -27.171627 -64.625464 
1.49 -16.075343 83.69832 -3.1819792 -114.27824 -3.1812276 -114.28327 
	-3.1819792 -114.27824 -27.317586 -66.320579 -16.530745 -146.68439 
	-3.1812276 -114.28327 -16.530745 -146.68439 -27.311366 -66.000551 
1.5 -16.178371 83.123642 -3.1795499 -115.06334 -3.1788077 -115.06843 
	-3.1795499 -115.06334 -27.457545 -67.703986 -16.648626 -147.59075 
	-3.1788077 -115.06843 -16.648626 -147.59075 -27.451412 -67.375836 
1.51 -16.282619 82.552056 -3.1771763 -115.8488 -3.1764435 -115.85394 
	-3.1771763 -115.8488 -27.597754 -69.087862 -16.767604 -148.50223 
	-3.1764435 -115.85394 -16.767604 -148.50223 -27.591719 -68.751395 
1.52 -16.388144 81.98377 -3.1748663 -116.63459 -3.1741429 -116.63978 
	-3.1748663 -116.63459 -27.738164 -70.472258 -16.887655 -149.41859 
	-3.1741429 -116.63978 -16.887655 -149.41859 -27.732239 -70.127278 
1.53 -16.494967 81.418894 -3.1726194 -117.42073 -3.1719055 -117.42597 
	-3.1726194 -117.42073 -27.87878 -71.857154 -17.008801 -150.33999 
	-3.1719055 -117.42597 -17.008801 -150.33999 -27.872978 -71.503462 
1.54 -16.603108 80.857541 -3.1704348 -118.20722 -3.1697304 -118.21252 
	-3.1704348 -118.20722 -28.019608 -73.242533 -17.131068 -151.26658 
	-3.1697304 -118.21252 -17.131068 -151.26658 -28.013939 -72.879923 
1.55 -16.712586 80.299829 -3.1683118 -118.9941 -3.1676169 -118.99944 
	-3.1683118 -118.9941 -28.16065 -74.62838 -17.254479 -152.19852 
	-3.1676169 -118.99944 -17.254479 -152.19852 -28.15513 -74.256644 
1.56 -16.823424 79.745877 -3.1662491 -119.78136 -3.1655636 -119.78675 
	-3.1662491 -119.78136 -28.301912 -76.014683 -17.379058 -153.13597 
	-3.1655636 -119.78675 -17.379058 -153.13597 -28.296553 -75.633609 
1.57 -16.935641 79.19581 -3.1642453 -120.56902 -3.1635693 -120.57446 
	-3.1642453 -120.56902 -28.443397 -77.401434 -17.50483 -154.07911 
	-3.1635693 -120.57446 -17.50483 -154.07911 -28.438212 -77.010803 
1.58 -17.049261 78.649756 -3.1622989 -121.35709 -3.1616324 -121.36259 
	-3.1622989 -121.35709 -28.585106 -78.788625 -17.631819 -155.02813 
	-3.1616324 -121.36259 -17.631819 -155.02813 -28.58011 -78.388214 
1.59 -17.164304 78.107845 -3.1604081 -122.14559 -3.159751 -122.15113 
	-3.1604081 -122.14559 -28.72704 -80.176251 -17.76005 -155.98322 
	-3.159751 -122.15113 -17.76005 -155.98322 -28.722249 -79.765834 
1.6 -17.280794 77.570216 -3.1585709 -122.93451 -3.1579234 -122.9401 
	-3.1585709 -122.93451 -28.8692 -81.564309 -17.889548 -156.94458 
	-3.1579234 -122.9401 -17.889548 -156.94458 -28.864629 -81.143654 
1.61 -17.398753 77.037007 -3.1567854 -123.72387 -3.1561473 -123.72951 
	-3.1567854 -123.72387 -29.011585 -82.952798 -18.020337 -157.91242 
	-3.1561473 -123.72951 -18.020337 -157.91242 -29.007251 -82.521666 
1.62 -17.518205 76.508366 -3.1550492 -124.51367 -3.1544205 -124.51936 
	-3.1550492 -124.51367 -29.154192 -84.341715 -18.152444 -158.88698 
	-3.1544205 -124.51936 -18.152444 -158.88698 -29.150112 -83.899866 
1.63 -17.639172 75.984444 -3.1533599 -125.30391 -3.1527407 -125.30965 
	-3.1533599 -125.30391 -29.297017 -85.731059 -18.285891 -159.86848 
	-3.1527407 -125.30965 -18.285891 -159.86848 -29.293208 -85.278246 
1.64 -17.761679 75.465396 -3.1517152 -126.09459 -3.1511053 -126.10038 
	-3.1517152 -126.09459 -29.440055 -87.120828 -18.420705 -160.85718 
	-3.1511053 -126.10038 -18.420705 -160.85718 -29.436537 -86.656799 
1.65 -17.88575 74.951385 -3.1501124 -126.88573 -3.1495119 -126.89156 
	-3.1501124 -126.88573 -29.583299 -88.511018 -18.556911 -161.85333 
	-3.1495119 -126.89156 -18.556911 -161.85333 -29.58009 -88.035517 
1.66 -18.011409 74.44258 -3.148549 -127.6773 -3.1479578 -127.68318 
	-3.148549 -127.6773 -29.726739 -89.901623 -18.694533 -162.8572 
	-3.1479578 -127.68318 -18.694533 -162.8572 -29.723859 -89.414388 
1.67 -18.138681 73.939156 -3.147022 -128.46931 -3.1464402 -128.47525 
	-3.147022 -128.46931 -29.870366 -91.292632 -18.833595 -163.86907 
	-3.1464402 -128.47525 -18.833595 -163.86907 -29.867836 -90.793398 
1.68 -18.267591 73.441296 -3.145529 -129.26176 -3.1449564 -129.26774 
	-3.145529 -129.26176 -30.014165 -92.684033 -18.974122 -164.88926 
	-3.1449564 -129.26774 -18.974122 -164.88926 -30.012007 -92.172528 
1.69 -18.398166 72.949191 -3.144067 -130.05464 -3.1435037 -130.06067 
	-3.144067 -130.05464 -30.158123 -94.075806 -19.116138 -165.91806 
	-3.1435037 -130.06067 -19.116138 -165.91806 -30.156358 -93.551754 
1.7 -18.530429 72.463037 -3.1426333 -130.84794 -3.1420793 -130.85401 
	-3.1426333 -130.84794 -30.302222 -95.467924 -19.259666 -166.95582 
	-3.1420793 -130.85401 -19.259666 -166.95582 -30.300875 -94.931047 
1.71 -18.664408 71.983044 -3.1412251 -131.64165 -3.1406803 -131.64777 
	-3.1412251 -131.64165 -30.446443 -96.860353 -19.40473 -168.00286 
	-3.1406803 -131.64777 -19.40473 -168.00286 -30.445537 -96.310366 
1.72 -18.800129 71.509426 -3.1398398 -132.43576 -3.1393042 -132.44192 
	-3.1398398 -132.43576 -30.590766 -98.25305 -19.551353 -169.05956 
	-3.1393042 -132.44192 -19.551353 -169.05956 -30.590326 -97.689665 
1.73 -18.937617 71.04241 -3.1384746 -133.23026 -3.1379482 -133.23647 
	-3.1384746 -133.23026 -30.735165 -99.645961 -19.699555 -170.12629 
	-3.1379482 -133.23647 -19.699555 -170.12629 -30.735217 -99.068887 
1.74 -19.0769 70.582232 -3.137127 -134.02513 -3.1366098 -134.03138 
	-3.137127 -134.02513 -30.879616 -101.03902 -19.84936 -171.20344 
	-3.1366098 -134.03138 -19.84936 -171.20344 -30.880187 -100.44796 
1.75 -19.218005 70.129141 -3.1357945 -134.82035 -3.1352863 -134.82665 
	-3.1357945 -134.82035 -31.02409 -102.43215 -20.000786 -172.29144 
	-3.1352863 -134.82665 -20.000786 -172.29144 -31.025208 -101.8268 
1.76 -19.360958 69.683396 -3.1344745 -135.61592 -3.1339755 -135.62226 
	-3.1344745 -135.61592 -31.168558 -103.82525 -20.153855 -173.3907 
	-3.1339755 -135.62226 -20.153855 -173.3907 -31.17025 -103.20532 
1.77 -19.505786 69.245269 -3.1331649 -136.41181 -3.132675 -136.41819 
	-3.1331649 -136.41181 -31.312986 -105.21822 -20.308583 -174.5017 
	-3.132675 -136.41819 -20.308583 -174.5017 -31.315283 -104.5834 
1.78 -19.652517 68.815047 -3.1318634 -137.208 -3.1313826 -137.21442 
	-3.1318634 -137.208 -31.45734 -106.61093 -20.46499 -175.6249 
	-3.1313826 -137.21442 -20.46499 -175.6249 -31.460271 -105.96091 
1.79 -19.801177 68.39303 -3.130568 -138.00448 -3.1300964 -138.01094 
	-3.130568 -138.00448 -31.601583 -108.00322 -20.623089 -176.7608 
	-3.1300964 -138.01094 -20.623089 -176.7608 -31.60518 -107.33769 
1.8 -19.951795 67.979534 -3.129277 -138.80121 -3.1288144 -138.80771 
	-3.129277 -138.80121 -31.745676 -109.39494 -20.782896 -177.90992 
	-3.1288144 -138.80771 -20.782896 -177.90992 -31.74997 -108.71359 
1.81 -20.104397 67.57489 -3.1279885 -139.59819 -3.1275351 -139.60473 
	-3.1279885 -139.59819 -31.88958 -110.78589 -20.944423 -179.0728 
	-3.1275351 -139.60473 -20.944423 -179.0728 -31.894604 -110.08841 
1.82 -20.259011 67.17945 -3.1267011 -140.39539 -3.1262568 -140.40196 
	-3.1267011 -140.39539 -32.033252 -112.17586 -21.107681 179.74998 
	-3.1262568 -140.40196 -21.107681 179.74998 -32.039038 -111.46193 
1.83 -20.415663 66.793579 -3.1254135 -141.19277 -3.1249783 -141.19939 
	-3.1254135 -141.19277 -32.176647 -113.56461 -21.272679 178.55783 
	-3.1249783 -141.19939 -21.272679 178.55783 -32.183229 -112.83392 
1.84 -20.574381 66.417668 -3.1241245 -141.99033 -3.1236984 -141.99698 
	-3.1241245 -141.99033 -32.319721 -114.95187 -21.439421 177.35013 
	-3.1236984 -141.99698 -21.439421 177.35013 -32.327134 -114.20412 
1.85 -20.73519 66.052123 -3.1228332 -142.78804 -3.1224163 -142.79472 
	-3.1228332 -142.78804 -32.462426 -116.33737 -21.607913 176.12623 
	-3.1224163 -142.79472 -21.607913 176.12623 -32.470704 -115.57223 
1.86 -20.898116 65.697376 -3.121539 -143.58586 -3.1211313 -143.59258 
	-3.121539 -143.58586 -32.604717 -117.72078 -21.778153 174.88545 
	-3.1211313 -143.59258 -21.778153 174.88545 -32.613894 -116.93794 
1.87 -21.063187 65.353882 -3.1202413 -144.38379 -3.1198429 -144.39054 
	-3.1202413 -144.38379 -32.746543 -119.10174 -21.950139 173.62707 
	-3.1198429 -144.39054 -21.950139 173.62707 -32.756655 -118.30089 
1.88 -21.230425 65.02212 -3.11894 -145.18178 -3.1185508 -145.18857 
	-3.11894 -145.18178 -32.887856 -120.4799 -22.123863 172.35037 
	-3.1185508 -145.18857 -22.123863 172.35037 -32.898938 -119.66073 
1.89 -21.399856 64.702596 -3.1176349 -145.97983 -3.1172549 -145.98664 
	-3.1176349 -145.97983 -33.028607 -121.85483 -22.299316 171.05457 
	-3.1172549 -145.98664 -22.299316 171.05457 -33.040693 -121.01703 
1.9 -21.571503 64.395845 -3.1163262 -146.7779 -3.1159556 -146.78474 
	-3.1163262 -146.7779 -33.168746 -123.22611 -22.476481 169.73886 
	-3.1159556 -146.78474 -22.476481 169.73886 -33.181871 -122.36937 
1.91 -21.745388 64.102431 -3.1150143 -147.57597 -3.1146531 -147.58285 
	-3.1150143 -147.57597 -33.308224 -124.59326 -22.655337 168.4024 
	-3.1146531 -147.58285 -22.655337 168.4024 -33.322422 -123.71729 
1.92 -21.921532 63.82295 -3.1136998 -148.37402 -3.113348 -148.38092 
	-3.1136998 -148.37402 -33.446991 -125.9558 -22.835858 167.04433 
	-3.113348 -148.38092 -22.835858 167.04433 -33.462295 -125.06028 
1.93 -22.099954 63.558032 -3.1123837 -149.17202 -3.1120413 -149.17896 
	-3.1123837 -149.17202 -33.585 -127.31318 -23.018012 165.66374 
	-3.1120413 -149.17896 -23.018012 165.66374 -33.601442 -126.39782 
1.94 -22.280673 63.308342 -3.1110668 -149.96996 -3.110734 -149.97692 
	-3.1110668 -149.96996 -33.722202 -128.66486 -23.201759 164.25968 
	-3.110734 -149.97692 -23.201759 164.25968 -33.739814 -127.72936 
1.95 -22.463704 63.074583 -3.1097504 -150.76782 -3.1094272 -150.7748 
	-3.1097504 -150.76782 -33.858551 -130.01025 -23.387053 162.83118 
	-3.1094272 -150.7748 -23.387053 162.83118 -33.877364 -129.05432 
1.96 -22.649061 62.857496 -3.108436 -151.56556 -3.1081225 -151.57258 
	-3.108436 -151.56556 -33.994002 -131.34873 -23.573836 161.37722 
	-3.1081225 -151.57258 -23.573836 161.37722 -34.014043 -130.37208 
1.97 -22.836754 62.657866 -3.1071251 -152.36318 -3.1068213 -152.37022 
	-3.1071251 -152.36318 -34.128512 -132.67966 -23.762046 159.89677 
	-3.1068213 -152.37022 -23.762046 159.89677 -34.149807 -131.68201 
1.98 -23.02679 62.476521 -3.1058195 -153.16066 -3.1055256 -153.16773 
	-3.1058195 -153.16066 -34.262038 -134.00237 -23.951607 158.38873 
	-3.1055256 -153.16773 -23.951607 158.38873 -34.284612 -132.98344 
1.99 -23.219175 62.314334 -3.1045212 -153.95798 -3.1042372 -153.96507 
	-3.1045212 -153.95798 -34.39454 -135.31618 -24.142434 156.852 
	-3.1042372 -153.96507 -24.142434 156.852 -34.418416 -134.27568 
2 -23.413907 62.172229 -3.1032323 -154.75513 -3.1029582 -154.76224 
	-3.1032323 -154.75513 -34.525981 -136.62037 -24.334429 155.28543 
	-3.1029582 -154.76224 -24.334429 155.28543 -34.551177 -135.55802 
2.01 -23.610957 62.051082 -3.101967 -155.55212 -3.101703 -155.55925 
	-3.101967 -155.55212 -34.656465 -137.91395 -24.52757 153.68761 
	-3.101703 -155.55925 -24.52757 153.68761 -34.682997 -136.82945 
2.02 -23.810287 61.951814 -3.1007394 -156.349 -3.1004855 -156.35615 
	-3.1007394 -156.349 -34.78611 -139.19597 -24.721822 152.05701 
	-3.1004855 -156.35615 -24.721822 152.05701 -34.813993 -138.08902 
2.03 -24.011876 61.875496 -3.0995514 -157.14574 -3.0993077 -157.15292 
	-3.0995514 -157.14574 -34.914901 -140.46577 -24.91705 150.39228 
	-3.0993077 -157.15292 -24.91705 150.39228 -34.944145 -139.33605 
2.04 -24.215699 61.823254 -3.0984046 -157.94236 -3.0981713 -157.94956 
	-3.0984046 -157.94236 -35.042823 -141.72269 -25.113096 148.69205 
	-3.0981713 -157.94956 -25.113096 148.69205 -35.073434 -140.56988 
2.05 -24.42172 61.796272 -3.097301 -158.73884 -3.097078 -158.74606 
	-3.097301 -158.73884 -35.16986 -142.96607 -25.309783 146.95491 
	-3.097078 -158.74606 -25.309783 146.95491 -35.201842 -141.78984 
2.06 -24.629898 61.795794 -3.0962421 -159.53519 -3.0960295 -159.54244 
	-3.0962421 -159.53519 -35.295996 -144.19522 -25.506912 145.17947 
	-3.0960295 -159.54244 -25.506912 145.17947 -35.32935 -142.99526 
2.07 -24.840179 61.823126 -3.0952295 -160.3314 -3.0950275 -160.33868 
	-3.0952295 -160.3314 -35.421217 -145.40948 -25.70426 143.36433 
	-3.0950275 -160.33868 -25.70426 143.36433 -35.455937 -144.18546 
2.08 -25.0525 61.879635 -3.094265 -161.12749 -3.0940735 -161.13479 
	-3.094265 -161.12749 -35.545507 -146.60816 -25.901578 141.50811 
	-3.0940735 -161.13479 -25.901578 141.50811 -35.581584 -145.35975 
2.09 -25.266784 61.966748 -3.0933499 -161.92344 -3.093169 -161.93076 
	-3.0933499 -161.92344 -35.668849 -147.79059 -26.098589 139.60947 
	-3.093169 -161.93076 -26.098589 139.60947 -35.706269 -146.51745 
2.1 -25.482942 62.085957 -3.0924856 -162.71927 -3.0923154 -162.72662 
	-3.0924856 -162.71927 -35.791225 -148.95609 -26.29499 137.66712 
	-3.0923154 -162.72662 -26.29499 137.66712 -35.82997 -147.65789 
2.11 -25.700867 62.238813 -3.0916735 -163.51498 -3.0915139 -163.52235 
	-3.0916735 -163.51498 -35.912617 -150.10399 -26.490446 135.67983 
	-3.0915139 -163.52235 -26.490446 135.67983 -35.952662 -148.78039 
2.12 -25.920437 62.426924 -3.0909147 -164.31057 -3.0907658 -164.31797 
	-3.0909147 -164.31057 -36.033002 -151.23361 -26.68459 133.64647 
	-3.0907658 -164.31797 -26.68459 133.64647 -36.074318 -149.88427 
2.13 -26.141509 62.651953 -3.0902103 -165.10605 -3.0900722 -165.11347 
	-3.0902103 -165.10605 -36.15236 -152.34431 -26.877026 131.56605 
	-3.0900722 -165.11347 -26.877026 131.56605 -36.194911 -150.96888 
2.14 -26.363921 62.915615 -3.0895612 -165.90143 -3.0894339 -165.90888 
	-3.0895612 -165.90143 -36.270664 -153.43542 -27.067324 129.43769 
	-3.0894339 -165.90888 -27.067324 129.43769 -36.314408 -152.03356 
2.15 -26.587484 63.219665 -3.0889683 -166.69671 -3.0888517 -166.70419 
	-3.0889683 -166.69671 -36.387886 -154.50629 -27.255024 127.26074 
	-3.0888517 -166.70419 -27.255024 127.26074 -36.432774 -153.07766 
2.16 -26.811986 63.565893 -3.0884322 -167.4919 -3.0883264 -167.49941 
	-3.0884322 -167.4919 -36.503995 -155.55629 -27.439632 125.03472 
	-3.0883264 -167.49941 -27.439632 125.03472 -36.549973 -154.10054 
2.17 -27.037185 63.956111 -3.0879534 -168.28702 -3.0878584 -168.29455 
	-3.0879534 -168.28702 -36.618956 -156.5848 -27.620628 122.75945 
	-3.0878584 -168.29455 -27.620628 122.75945 -36.665963 -155.10159 
2.18 -27.262809 64.392139 -3.0875323 -169.08207 -3.0874481 -169.08963 
	-3.0875323 -169.08207 -36.732732 -157.59121 -27.797464 120.435 
	-3.0874481 -169.08963 -27.797464 120.435 -36.780696 -156.0802 
2.19 -27.488553 64.875791 -3.0871691 -169.87706 -3.0870957 -169.88465 
	-3.0871691 -169.87706 -36.845278 -158.57492 -27.969571 118.06179 
	-3.0870957 -169.88465 -27.969571 118.06179 -36.894123 -157.03577 
2.2 -27.714075 65.408847 -3.0868639 -170.67201 -3.0868013 -170.67963 
	-3.0868639 -170.67201 -36.956547 -159.53536 -28.136361 115.64058 
	-3.0868013 -170.67963 -28.136361 115.64058 -37.006188 -157.96775 
2.21 -27.938995 65.993035 -3.0866166 -171.46692 -3.0865647 -171.47456 
	-3.0866166 -171.46692 -37.066486 -160.47197 -28.297232 113.17255 
	-3.0865647 -171.47456 -28.297232 113.17255 -37.11683 -158.87558 
2.22 -28.162893 66.629998 -3.0864269 -172.2618 -3.0863857 -172.26948 
	-3.0864269 -172.2618 -37.175038 -161.38423 -28.451578 110.65928 
	-3.0863857 -172.26948 -28.451578 110.65928 -37.225984 -159.75874 
2.23 -28.385307 67.321261 -3.0862944 -173.05668 -3.0862638 -173.06438 
	-3.0862944 -173.05668 -37.282139 -162.27162 -28.598799 108.10282 
	-3.0862638 -173.06438 -28.598799 108.10282 -37.333575 -160.61675 
2.24 -28.605729 68.068191 -3.0862184 -173.85155 -3.0861985 -173.85929 
	-3.0862184 -173.85155 -37.387718 -163.13366 -28.738302 105.50567 
	-3.0861985 -173.85929 -28.738302 105.50567 -37.439527 -161.44914 
2.25 -28.823611 68.871958 -3.0861983 -174.64644 -3.086189 -174.6542 
	-3.0861983 -174.64644 -37.491699 -163.96991 -28.86952 102.8708 
	-3.086189 -174.6542 -28.86952 102.8708 -37.543753 -162.25548 
2.26 -29.038357 69.733481 -3.0862331 -175.44134 -3.0862344 -175.44914 
	-3.0862331 -175.44134 -37.594001 -164.77994 -28.991916 100.20165 
	-3.0862344 -175.44914 -28.991916 100.20165 -37.646162 -163.03538 
2.27 -29.249331 70.653379 -3.0863217 -176.23629 -3.0863335 -176.24411 
	-3.0863217 -176.23629 -37.694532 -165.56339 -29.104999 97.502099 
	-3.0863335 -176.24411 -29.104999 97.502099 -37.746656 -163.7885 
2.28 -29.455855 71.631918 -3.0864629 -177.03127 -3.0864852 -177.03913 
	-3.0864629 -177.03127 -37.793197 -166.31989 -29.20833 94.776449 
	-3.0864852 -177.03913 -29.20833 94.776449 -37.845129 -164.51452 
2.29 -29.657217 72.66895 -3.0866554 -177.82632 -3.0866881 -177.83421 
	-3.0866554 -177.82632 -37.889893 -167.04917 -29.301534 92.029371 
	-3.0866881 -177.83421 -29.301534 92.029371 -37.941469 -165.21318 
2.3 -29.852673 73.763858 -3.0868975 -178.62144 -3.0869406 -178.62935 
	-3.0868975 -178.62144 -37.984509 -167.75096 -29.384311 89.265854 
	-3.0869406 -178.62935 -29.384311 89.265854 -38.035557 -165.8843 
2.31 -30.041456 74.915502 -3.0871877 -179.41663 -3.0872411 -179.42457 
	-3.0871877 -179.41663 -38.076927 -168.42507 -29.456438 86.491135 
	-3.0872411 -179.42457 -29.456438 86.491135 -38.127266 -166.52771 
2.32 -30.222789 76.122166 -3.0875242 179.78809 -3.0875878 179.78011 
	-3.0875242 179.78809 -38.167024 -169.07136 -29.517781 83.710625 
	-3.0875878 179.78011 -29.517781 83.710625 -38.216465 -167.14333 
2.33 -30.39589 77.381521 -3.0879049 178.99271 -3.0879788 178.9847 
	-3.0879049 178.99271 -38.254668 -169.68975 -29.568295 80.929822 
	-3.0879788 178.9847 -29.568295 80.929822 -38.303014 -167.73114 
2.34 -30.559991 78.690589 -3.088328 178.19722 -3.088412 178.18919 
	-3.088328 178.19722 -38.339722 -170.2802 -29.608026 78.154226 
	-3.088412 178.18919 -29.608026 78.154226 -38.386769 -168.29118 
2.35 -30.71435 80.045729 -3.0887912 177.40162 -3.0888853 177.39356 
	-3.0887912 177.40162 -38.422043 -170.84278 -29.637109 75.389253 
	-3.0888853 177.39356 -29.637109 75.389253 -38.467581 -168.8236 
2.36 -30.858267 81.442639 -3.0892923 176.6059 -3.0893964 176.5978 
	-3.0892923 176.6059 -38.501484 -171.37759 -29.655766 72.640152 
	-3.0893964 176.5978 -29.655766 72.640152 -38.545294 -169.32857 
2.37 -30.991104 82.876377 -3.089829 175.81005 -3.0899431 175.80192 
	-3.089829 175.81005 -38.577889 -171.88485 -29.664298 69.911925 
	-3.0899431 175.80192 -29.664298 69.911925 -38.619751 -169.8064 
2.38 -31.112297 84.341403 -3.0903988 175.01406 -3.0905229 175.00591 
	-3.0903988 175.01406 -38.651102 -172.36482 -29.663081 67.209265 
	-3.0905229 175.00591 -29.663081 67.209265 -38.69079 -170.25745 
2.39 -31.221371 85.831646 -3.0909994 174.21793 -3.0911333 174.20975 
	-3.0909994 174.21793 -38.720962 -172.81787 -29.652555 64.536493 
	-3.0911333 174.20975 -29.652555 64.536493 -38.758248 -170.68219 
2.4 -31.317961 87.340593 -3.0916282 173.42166 -3.0917719 173.41346 
	-3.0916282 173.42166 -38.787306 -173.24445 -29.633212 61.897521 
	-3.0917719 173.41346 -29.633212 61.897521 -38.82196 -171.08116 
2.41 -31.401815 88.86139 -3.0922825 172.62525 -3.092436 172.61701 
	-3.0922825 172.62525 -38.849971 -173.64511 -29.60559 59.295815 
	-3.092436 172.61701 -29.60559 59.295815 -38.881762 -171.45501 
2.42 -31.472806 90.386967 -3.0929599 171.82868 -3.0931231 171.82042 
	-3.0929599 171.82868 -38.908791 -174.02047 -29.570258 56.734386 
	-3.0931231 171.82042 -29.570258 56.734386 -38.937492 -171.8045 
2.43 -31.530939 91.910168 -3.0936577 171.03197 -3.0938306 171.02368 
	-3.0936577 171.03197 -38.963604 -174.37127 -29.527808 54.215776 
	-3.0938306 171.02368 -29.527808 54.215776 -38.988988 -172.13046 
2.44 -31.576346 93.423884 -3.0943732 170.23511 -3.0945557 170.22679 
	-3.0943732 170.23511 -39.014251 -174.69833 -29.478845 51.74207 
	-3.0945557 170.22679 -29.478845 51.74207 -39.036097 -172.43383 
2.45 -31.609287 94.921186 -3.0951039 169.4381 -3.095296 169.42976 
	-3.0951039 169.4381 -39.060574 -175.00258 -29.423976 49.314909 
	-3.095296 169.42976 -29.423976 49.314909 -39.078668 -172.71566 