! AWR Design Environment (19377) Fri Dec 26 15:08:01 2025
! Document = 'symbolic_2_way_1_section'
! nPorts: 3, nXvals: 401

# GHz S DB R 50
!Freq DBS11 AngS11 DBS12 AngS12 DBS13 AngS13 
!	DBS21 AngS21 DBS22 AngS22 DBS23 AngS23 
!	DBS31 AngS31 DBS32 AngS32 DBS33 AngS33 
1 -10.669468 91.439175 -3.3994806 -88.560825 -3.3994806 -88.560825 
	-3.3994806 -88.560825 -16.312182 32.921329 -8.0730948 -107.84715 
	-3.3994806 -88.560825 -8.0730948 -107.84715 -16.312182 32.921329 
1.01 -10.693626 90.548175 -3.3972226 -89.451825 -3.3972226 -89.451825 
	-3.3972226 -89.451825 -16.412747 31.723544 -8.1314698 -108.70614 
	-3.3972226 -89.451825 -8.1314698 -108.70614 -16.412747 31.723544 
1.02 -10.71809 89.657024 -3.3949501 -90.342976 -3.3949501 -90.342976 
	-3.3949501 -90.342976 -16.513658 30.529109 -8.189836 -109.56301 
	-3.3949501 -90.342976 -8.189836 -109.56301 -16.513658 30.529109 
1.03 -10.74286 88.76572 -3.3926632 -91.23428 -3.3926632 -91.23428 
	-3.3926632 -91.23428 -16.614917 29.337964 -8.2481953 -110.41782 
	-3.3926632 -91.23428 -8.2481953 -110.41782 -16.614917 29.337964 
1.04 -10.76794 87.874262 -3.3903623 -92.125738 -3.3903623 -92.125738 
	-3.3903623 -92.125738 -16.716526 28.150048 -8.3065502 -111.27062 
	-3.3903623 -92.125738 -8.3065502 -111.27062 -16.716526 28.150048 
1.05 -10.793332 86.982649 -3.3880475 -93.017351 -3.3880475 -93.017351 
	-3.3880475 -93.017351 -16.818488 26.965303 -8.3649032 -112.12147 
	-3.3880475 -93.017351 -8.3649032 -112.12147 -16.818488 26.965303 
1.06 -10.819037 86.09088 -3.385719 -93.90912 -3.385719 -93.90912 
	-3.385719 -93.90912 -16.920804 25.783673 -8.4232569 -112.97044 
	-3.385719 -93.90912 -8.4232569 -112.97044 -16.920804 25.783673 
1.07 -10.845059 85.198954 -3.3833772 -94.801046 -3.3833772 -94.801046 
	-3.3833772 -94.801046 -17.023478 24.605101 -8.4816141 -113.81756 
	-3.3833772 -94.801046 -8.4816141 -113.81756 -17.023478 24.605101 
1.08 -10.871399 84.30687 -3.3810222 -95.69313 -3.3810222 -95.69313 
	-3.3810222 -95.69313 -17.126513 23.429531 -8.539978 -114.6629 
	-3.3810222 -95.69313 -8.539978 -114.6629 -17.126513 23.429531 
1.09 -10.898061 83.414627 -3.3786543 -96.585373 -3.3786543 -96.585373 
	-3.3786543 -96.585373 -17.229911 22.256908 -8.5983515 -115.5065 
	-3.3786543 -96.585373 -8.5983515 -115.5065 -17.229911 22.256908 
1.1 -10.925046 82.522225 -3.3762737 -97.477775 -3.3762737 -97.477775 
	-3.3762737 -97.477775 -17.333676 21.087179 -8.6567381 -116.34842 
	-3.3762737 -97.477775 -8.6567381 -116.34842 -17.333676 21.087179 
1.11 -10.952357 81.629662 -3.3738807 -98.370338 -3.3738807 -98.370338 
	-3.3738807 -98.370338 -17.437812 19.920292 -8.7151412 -117.18871 
	-3.3738807 -98.370338 -8.7151412 -117.18871 -17.437812 19.920292 
1.12 -10.979997 80.736937 -3.3714755 -99.263063 -3.3714755 -99.263063 
	-3.3714755 -99.263063 -17.542323 18.756194 -8.7735642 -118.02741 
	-3.3714755 -99.263063 -8.7735642 -118.02741 -17.542323 18.756194 
1.13 -11.007968 79.844049 -3.3690583 -100.15595 -3.3690583 -100.15595 
	-3.3690583 -100.15595 -17.647211 17.594835 -8.8320111 -118.86457 
	-3.3690583 -100.15595 -8.8320111 -118.86457 -17.647211 17.594835 
1.14 -11.036273 78.950999 -3.3666294 -101.049 -3.3666294 -101.049 
	-3.3666294 -101.049 -17.752482 16.436164 -8.8904855 -119.70024 
	-3.3666294 -101.049 -8.8904855 -119.70024 -17.752482 16.436164 
1.15 -11.064915 78.057783 -3.364189 -101.94222 -3.364189 -101.94222 
	-3.364189 -101.94222 -17.85814 15.280132 -8.9489915 -120.53446 
	-3.364189 -101.94222 -8.9489915 -120.53446 -17.85814 15.280132 
1.16 -11.093896 77.164403 -3.3617375 -102.8356 -3.3617375 -102.8356 
	-3.3617375 -102.8356 -17.96419 14.126692 -9.0075331 -121.36728 
	-3.3617375 -102.8356 -9.0075331 -121.36728 -17.96419 14.126692 
1.17 -11.123219 76.270857 -3.359275 -103.72914 -3.359275 -103.72914 
	-3.359275 -103.72914 -18.070635 12.975794 -9.0661146 -122.19874 
	-3.359275 -103.72914 -9.0661146 -122.19874 -18.070635 12.975794 
1.18 -11.152888 75.377143 -3.3568017 -104.62286 -3.3568017 -104.62286 
	-3.3568017 -104.62286 -18.177482 11.827394 -9.1247403 -123.02889 
	-3.3568017 -104.62286 -9.1247403 -123.02889 -18.177482 11.827394 
1.19 -11.182904 74.483262 -3.354318 -105.51674 -3.354318 -105.51674 
	-3.354318 -105.51674 -18.284735 10.681445 -9.1834145 -123.85776 
	-3.354318 -105.51674 -9.1834145 -123.85776 -18.284735 10.681445 
1.2 -11.213271 73.589213 -3.3518242 -106.41079 -3.3518242 -106.41079 
	-3.3518242 -106.41079 -18.392399 9.537902 -9.242142 -124.6854 
	-3.3518242 -106.41079 -9.242142 -124.6854 -18.392399 9.537902 
1.21 -11.243992 72.694994 -3.3493204 -107.30501 -3.3493204 -107.30501 
	-3.3493204 -107.30501 -18.500479 8.396721 -9.3009272 -125.51184 
	-3.3493204 -107.30501 -9.3009272 -125.51184 -18.500479 8.396721 
1.22 -11.27507 71.800606 -3.3468069 -108.19939 -3.3468069 -108.19939 
	-3.3468069 -108.19939 -18.608983 7.2578585 -9.359775 -126.33712 
	-3.3468069 -108.19939 -9.359775 -126.33712 -18.608983 7.2578585 
1.23 -11.306509 70.906046 -3.3442839 -109.09395 -3.3442839 -109.09395 
	-3.3442839 -109.09395 -18.717914 6.1212719 -9.4186901 -127.16129 
	-3.3442839 -109.09395 -9.4186901 -127.16129 -18.717914 6.1212719 
1.24 -11.33831 70.011315 -3.3417519 -109.98868 -3.3417519 -109.98868 
	-3.3417519 -109.98868 -18.82728 4.9869195 -9.4776776 -127.98437 
	-3.3417519 -109.98868 -9.4776776 -127.98437 -18.82728 4.9869195 
1.25 -11.370478 69.116412 -3.3392109 -110.88359 -3.3392109 -110.88359 
	-3.3392109 -110.88359 -18.937086 3.8547601 -9.5367425 -128.80641 
	-3.3392109 -110.88359 -9.5367425 -128.80641 -18.937086 3.8547601 
1.26 -11.403015 68.221336 -3.3366613 -111.77866 -3.3366613 -111.77866 
	-3.3366613 -111.77866 -19.047339 2.7247534 -9.59589 -129.62744 
	-3.3366613 -111.77866 -9.59589 -129.62744 -19.047339 2.7247534 
1.27 -11.435926 67.326087 -3.3341033 -112.67391 -3.3341033 -112.67391 
	-3.3341033 -112.67391 -19.158046 1.5968597 -9.6551252 -130.44749 
	-3.3341033 -112.67391 -9.6551252 -130.44749 -19.158046 1.5968597 
1.28 -11.469213 66.430663 -3.3315372 -113.56934 -3.3315372 -113.56934 
	-3.3315372 -113.56934 -19.269212 0.47104023 -9.7144535 -131.2666 
	-3.3315372 -113.56934 -9.7144535 -131.2666 -19.269212 0.47104023 
1.29 -11.50288 65.535064 -3.3289633 -114.46494 -3.3289633 -114.46494 
	-3.3289633 -114.46494 -19.380844 -0.65274327 -9.7738803 -132.0848 
	-3.3289633 -114.46494 -9.7738803 -132.0848 -19.380844 -0.65274327 
1.3 -11.53693 64.63929 -3.3263818 -115.36071 -3.3263818 -115.36071 
	-3.3263818 -115.36071 -19.492951 -1.7745283 -9.8334111 -132.90213 
	-3.3263818 -115.36071 -9.8334111 -132.90213 -19.492951 -1.7745283 
1.31 -11.571367 63.74334 -3.323793 -116.25666 -3.323793 -116.25666 
	-3.323793 -116.25666 -19.605538 -2.8943516 -9.8930515 -133.7186 
	-3.323793 -116.25666 -9.8930515 -133.7186 -19.605538 -2.8943516 
1.32 -11.606195 62.847213 -3.3211973 -117.15279 -3.3211973 -117.15279 
	-3.3211973 -117.15279 -19.718614 -4.0122495 -9.9528071 -134.53426 
	-3.3211973 -117.15279 -9.9528071 -134.53426 -19.718614 -4.0122495 
1.33 -11.641417 61.950909 -3.3185947 -118.04909 -3.3185947 -118.04909 
	-3.3185947 -118.04909 -19.832185 -5.1282572 -10.012684 -135.34913 
	-3.3185947 -118.04909 -10.012684 -135.34913 -19.832185 -5.1282572 
1.34 -11.677038 61.054427 -3.3159857 -118.94557 -3.3159857 -118.94557 
	-3.3159857 -118.94557 -19.94626 -6.2424098 -10.072687 -136.16325 
	-3.3159857 -118.94557 -10.072687 -136.16325 -19.94626 -6.2424098 
1.35 -11.71306 60.157766 -3.3133705 -119.84223 -3.3133705 -119.84223 
	-3.3133705 -119.84223 -20.060846 -7.3547414 -10.132824 -136.97663 
	-3.3133705 -119.84223 -10.132824 -136.97663 -20.060846 -7.3547414 
1.36 -11.749488 59.260927 -3.3107494 -120.73907 -3.3107494 -120.73907 
	-3.3107494 -120.73907 -20.175952 -8.4652855 -10.193099 -137.78931 
	-3.3107494 -120.73907 -10.193099 -137.78931 -20.175952 -8.4652855 
1.37 -11.786327 58.363908 -3.3081226 -121.63609 -3.3081226 -121.63609 
	-3.3081226 -121.63609 -20.291585 -9.5740752 -10.253519 -138.60132 
	-3.3081226 -121.63609 -10.253519 -138.60132 -20.291585 -9.5740752 
1.38 -11.823579 57.466709 -3.3054904 -122.53329 -3.3054904 -122.53329 
	-3.3054904 -122.53329 -20.407754 -10.681143 -10.314091 -139.41268 
	-3.3054904 -122.53329 -10.314091 -139.41268 -20.407754 -10.681143 
1.39 -11.861249 56.56933 -3.3028532 -123.43067 -3.3028532 -123.43067 
	-3.3028532 -123.43067 -20.524468 -11.78652 -10.374819 -140.22342 
	-3.3028532 -123.43067 -10.374819 -140.22342 -20.524468 -11.78652 
1.4 -11.899342 55.671771 -3.3002112 -124.32823 -3.3002112 -124.32823 
	-3.3002112 -124.32823 -20.641735 -12.890238 -10.435712 -141.03355 
	-3.3002112 -124.32823 -10.435712 -141.03355 -20.641735 -12.890238 
1.41 -11.937861 54.77403 -3.2975646 -125.22597 -3.2975646 -125.22597 
	-3.2975646 -125.22597 -20.759565 -13.992328 -10.496774 -141.84311 
	-3.2975646 -125.22597 -10.496774 -141.84311 -20.759565 -13.992328 
1.42 -11.976812 53.876107 -3.2949139 -126.12389 -3.2949139 -126.12389 
	-3.2949139 -126.12389 -20.877967 -15.092819 -10.558014 -142.65213 
	-3.2949139 -126.12389 -10.558014 -142.65213 -20.877967 -15.092819 
1.43 -12.016198 52.978002 -3.2922591 -127.022 -3.2922591 -127.022 
	-3.2922591 -127.022 -20.996949 -16.191741 -10.619436 -143.46061 
	-3.2922591 -127.022 -10.619436 -143.46061 -20.996949 -16.191741 
1.44 -12.056024 52.079715 -3.2896007 -127.92028 -3.2896007 -127.92028 
	-3.2896007 -127.92028 -21.116521 -17.289124 -10.681049 -144.26859 
	-3.2896007 -127.92028 -10.681049 -144.26859 -21.116521 -17.289124 
1.45 -12.096295 51.181245 -3.2869389 -128.81875 -3.2869389 -128.81875 
	-3.2869389 -128.81875 -21.236694 -18.384995 -10.742858 -145.07608 
	-3.2869389 -128.81875 -10.742858 -145.07608 -21.236694 -18.384995 
1.46 -12.137015 50.282592 -3.2842741 -129.71741 -3.2842741 -129.71741 
	-3.2842741 -129.71741 -21.357477 -19.479382 -10.804872 -145.88311 
	-3.2842741 -129.71741 -10.804872 -145.88311 -21.357477 -19.479382 
1.47 -12.17819 49.383756 -3.2816064 -130.61624 -3.2816064 -130.61624 
	-3.2816064 -130.61624 -21.47888 -20.572313 -10.867095 -146.6897 
	-3.2816064 -130.61624 -10.867095 -146.6897 -21.47888 -20.572313 
1.48 -12.219824 48.484736 -3.2789362 -131.51526 -3.2789362 -131.51526 
	-3.2789362 -131.51526 -21.600913 -21.663815 -10.929537 -147.49587 
	-3.2789362 -131.51526 -10.929537 -147.49587 -21.600913 -21.663815 
1.49 -12.261922 47.585532 -3.2762637 -132.41447 -3.2762637 -132.41447 
	-3.2762637 -132.41447 -21.723588 -22.753914 -10.992203 -148.30164 
	-3.2762637 -132.41447 -10.992203 -148.30164 -21.723588 -22.753914 
1.5 -12.304489 46.686143 -3.2735893 -133.31386 -3.2735893 -133.31386 
	-3.2735893 -133.31386 -21.846914 -23.842636 -11.055102 -149.10703 
	-3.2735893 -133.31386 -11.055102 -149.10703 -21.846914 -23.842636 
1.51 -12.347531 45.786571 -3.2709133 -134.21343 -3.2709133 -134.21343 
	-3.2709133 -134.21343 -21.970903 -24.930007 -11.11824 -149.91205 
	-3.2709133 -134.21343 -11.11824 -149.91205 -21.970903 -24.930007 
1.52 -12.391053 44.886813 -3.2682359 -135.11319 -3.2682359 -135.11319 
	-3.2682359 -135.11319 -22.095567 -26.016051 -11.181624 -150.71672 
	-3.2682359 -135.11319 -11.181624 -150.71672 -22.095567 -26.016051 
1.53 -12.435061 43.986871 -3.2655575 -136.01313 -3.2655575 -136.01313 
	-3.2655575 -136.01313 -22.220915 -27.100794 -11.245264 -151.52107 
	-3.2655575 -136.01313 -11.245264 -151.52107 -22.220915 -27.100794 
1.54 -12.479559 43.086743 -3.2628783 -136.91326 -3.2628783 -136.91326 
	-3.2628783 -136.91326 -22.346961 -28.184259 -11.309165 -152.3251 
	-3.2628783 -136.91326 -11.309165 -152.3251 -22.346961 -28.184259 
1.55 -12.524554 42.186431 -3.2601986 -137.81357 -3.2601986 -137.81357 
	-3.2601986 -137.81357 -22.473715 -29.26647 -11.373336 -153.12884 
	-3.2601986 -137.81357 -11.373336 -153.12884 -22.473715 -29.26647 
1.56 -12.570052 41.285932 -3.2575187 -138.71407 -3.2575187 -138.71407 
	-3.2575187 -138.71407 -22.601191 -30.34745 -11.437784 -153.93231 
	-3.2575187 -138.71407 -11.437784 -153.93231 -22.601191 -30.34745 
1.57 -12.616058 40.385249 -3.254839 -139.61475 -3.254839 -139.61475 
	-3.254839 -139.61475 -22.729399 -31.427223 -11.502519 -154.73551 
	-3.254839 -139.61475 -11.502519 -154.73551 -22.729399 -31.427223 
1.58 -12.662578 39.48438 -3.2521596 -140.51562 -3.2521596 -140.51562 
	-3.2521596 -140.51562 -22.858354 -32.50581 -11.567546 -155.53846 
	-3.2521596 -140.51562 -11.567546 -155.53846 -22.858354 -32.50581 
1.59 -12.709618 38.583325 -3.249481 -141.41667 -3.249481 -141.41667 
	-3.249481 -141.41667 -22.988068 -33.583233 -11.632876 -156.34118 
	-3.249481 -141.41667 -11.632876 -156.34118 -22.988068 -33.583233 
1.6 -12.757185 37.682085 -3.2468033 -142.31792 -3.2468033 -142.31792 
	-3.2468033 -142.31792 -23.118554 -34.659515 -11.698516 -157.14368 
	-3.2468033 -142.31792 -11.698516 -157.14368 -23.118554 -34.659515 
1.61 -12.805286 36.780658 -3.2441269 -143.21934 -3.2441269 -143.21934 
	-3.2441269 -143.21934 -23.249826 -35.734676 -11.764474 -157.94598 
	-3.2441269 -143.21934 -11.764474 -157.94598 -23.249826 -35.734676 
1.62 -12.853926 35.879046 -3.2414522 -144.12095 -3.2414522 -144.12095 
	-3.2414522 -144.12095 -23.381896 -36.808737 -11.830759 -158.74809 
	-3.2414522 -144.12095 -11.830759 -158.74809 -23.381896 -36.808737 
1.63 -12.903112 34.977249 -3.2387793 -145.02275 -3.2387793 -145.02275 
	-3.2387793 -145.02275 -23.51478 -37.881718 -11.89738 -159.55002 
	-3.2387793 -145.02275 -11.89738 -159.55002 -23.51478 -37.881718 
1.64 -12.952852 34.075265 -3.2361086 -145.92473 -3.2361086 -145.92473 
	-3.2361086 -145.92473 -23.648491 -38.953641 -11.964346 -160.35179 
	-3.2361086 -145.92473 -11.964346 -160.35179 -23.648491 -38.953641 
1.65 -13.003152 33.173096 -3.2334404 -146.8269 -3.2334404 -146.8269 
	-3.2334404 -146.8269 -23.783045 -40.024524 -12.031665 -161.1534 
	-3.2334404 -146.8269 -12.031665 -161.1534 -23.783045 -40.024524 
1.66 -13.054019 32.270741 -3.230775 -147.72926 -3.230775 -147.72926 
	-3.230775 -147.72926 -23.918455 -41.094387 -12.099347 -161.95488 
	-3.230775 -147.72926 -12.099347 -161.95488 -23.918455 -41.094387 
1.67 -13.105461 31.368201 -3.2281127 -148.6318 -3.2281127 -148.6318 
	-3.2281127 -148.6318 -24.054737 -42.163249 -12.167401 -162.75623 
	-3.2281127 -148.6318 -12.167401 -162.75623 -24.054737 -42.163249 
1.68 -13.157486 30.465476 -3.2254538 -149.53452 -3.2254538 -149.53452 
	-3.2254538 -149.53452 -24.191907 -43.231129 -12.235835 -163.55747 
	-3.2254538 -149.53452 -12.235835 -163.55747 -24.191907 -43.231129 
1.69 -13.2101 29.562565 -3.2227985 -150.43744 -3.2227985 -150.43744 
	-3.2227985 -150.43744 -24.329981 -44.298044 -12.30466 -164.35859 
	-3.2227985 -150.43744 -12.30466 -164.35859 -24.329981 -44.298044 
1.7 -13.263311 28.659469 -3.2201472 -151.34053 -3.2201472 -151.34053 
	-3.2201472 -151.34053 -24.468974 -45.364014 -12.373886 -165.15963 
	-3.2201472 -151.34053 -12.373886 -165.15963 -24.468974 -45.364014 
1.71 -13.317128 27.756188 -3.2175002 -152.24381 -3.2175002 -152.24381 
	-3.2175002 -152.24381 -24.608904 -46.429056 -12.443522 -165.96058 
	-3.2175002 -152.24381 -12.443522 -165.96058 -24.608904 -46.429056 
1.72 -13.371559 26.852722 -3.2148578 -153.14728 -3.2148578 -153.14728 
	-3.2148578 -153.14728 -24.749786 -47.493186 -12.513578 -166.76146 
	-3.2148578 -153.14728 -12.513578 -166.76146 -24.749786 -47.493186 
1.73 -13.426612 25.949072 -3.2122203 -154.05093 -3.2122203 -154.05093 
	-3.2122203 -154.05093 -24.89164 -48.556423 -12.584064 -167.56227 
	-3.2122203 -154.05093 -12.584064 -167.56227 -24.89164 -48.556423 
1.74 -13.482295 25.045237 -3.2095879 -154.95476 -3.2095879 -154.95476 
	-3.2095879 -154.95476 -25.034481 -49.618783 -12.654991 -168.36303 
	-3.2095879 -154.95476 -12.654991 -168.36303 -25.034481 -49.618783 
1.75 -13.538618 24.141218 -3.206961 -155.85878 -3.206961 -155.85878 
	-3.206961 -155.85878 -25.178329 -50.680283 -12.726369 -169.16375 
	-3.206961 -155.85878 -12.726369 -169.16375 -25.178329 -50.680283 
1.76 -13.59559 23.237016 -3.2043399 -156.76298 -3.2043399 -156.76298 
	-3.2043399 -156.76298 -25.323202 -51.740938 -12.798209 -169.96443 
	-3.2043399 -156.76298 -12.798209 -169.96443 -25.323202 -51.740938 
1.77 -13.653219 22.33263 -3.2017249 -157.66737 -3.2017249 -157.66737 
	-3.2017249 -157.66737 -25.469119 -52.800765 -12.870522 -170.76508 
	-3.2017249 -157.66737 -12.870522 -170.76508 -25.469119 -52.800765 
1.78 -13.711514 21.428061 -3.1991163 -158.57194 -3.1991163 -158.57194 
	-3.1991163 -158.57194 -25.616098 -53.85978 -12.943319 -171.56571 
	-3.1991163 -158.57194 -12.943319 -171.56571 -25.616098 -53.85978 
1.79 -13.770487 20.52331 -3.1965143 -159.47669 -3.1965143 -159.47669 
	-3.1965143 -159.47669 -25.764161 -54.917997 -13.016612 -172.36633 
	-3.1965143 -159.47669 -13.016612 -172.36633 -25.764161 -54.917997 
1.8 -13.830145 19.618376 -3.1939193 -160.38162 -3.1939193 -160.38162 
	-3.1939193 -160.38162 -25.913327 -55.975431 -13.090411 -173.16695 
	-3.1939193 -160.38162 -13.090411 -173.16695 -25.913327 -55.975431 
1.81 -13.890501 18.71326 -3.1913315 -161.28674 -3.1913315 -161.28674 
	-3.1913315 -161.28674 -26.063618 -57.032099 -13.164729 -173.96758 
	-3.1913315 -161.28674 -13.164729 -173.96758 -26.063618 -57.032099 
1.82 -13.951563 17.807962 -3.1887514 -162.19204 -3.1887514 -162.19204 
	-3.1887514 -162.19204 -26.215053 -58.088013 -13.239578 -174.76821 
	-3.1887514 -162.19204 -13.239578 -174.76821 -26.215053 -58.088013 
1.83 -14.013343 16.902483 -3.1861791 -163.09752 -3.1861791 -163.09752 
	-3.1861791 -163.09752 -26.367656 -59.143189 -13.314969 -175.56886 
	-3.1861791 -163.09752 -13.314969 -175.56886 -26.367656 -59.143189 
1.84 -14.075851 15.996824 -3.183615 -164.00318 -3.183615 -164.00318 
	-3.183615 -164.00318 -26.521449 -60.19764 -13.390916 -176.36954 
	-3.183615 -164.00318 -13.390916 -176.36954 -26.521449 -60.19764 
1.85 -14.139099 15.090984 -3.1810593 -164.90902 -3.1810593 -164.90902 
	-3.1810593 -164.90902 -26.676454 -61.251381 -13.467432 -177.17025 
	-3.1810593 -164.90902 -13.467432 -177.17025 -26.676454 -61.251381 
1.86 -14.203097 14.184965 -3.1785124 -165.81504 -3.1785124 -165.81504 
	-3.1785124 -165.81504 -26.832695 -62.304424 -13.544528 -177.971 
	-3.1785124 -165.81504 -13.544528 -177.971 -26.832695 -62.304424 
1.87 -14.267859 13.278766 -3.1759745 -166.72123 -3.1759745 -166.72123 
	-3.1759745 -166.72123 -26.990196 -63.356784 -13.62222 -178.7718 
	-3.1759745 -166.72123 -13.62222 -178.7718 -26.990196 -63.356784 
1.88 -14.333395 12.372389 -3.173446 -167.62761 -3.173446 -167.62761 
	-3.173446 -167.62761 -27.148982 -64.408473 -13.700519 -179.57264 
	-3.173446 -167.62761 -13.700519 -179.57264 -27.148982 -64.408473 
1.89 -14.399719 11.465833 -3.1709271 -168.53417 -3.1709271 -168.53417 
	-3.1709271 -168.53417 -27.309077 -65.459504 -13.779441 179.62646 
	-3.1709271 -168.53417 -13.779441 179.62646 -27.309077 -65.459504 
1.9 -14.466843 10.559101 -3.1684182 -169.4409 -3.1684182 -169.4409 
	-3.1684182 -169.4409 -27.470509 -66.50989 -13.858999 178.8255 
	-3.1684182 -169.4409 -13.858999 178.8255 -27.470509 -66.50989 
1.91 -14.53478 9.6521908 -3.1659195 -170.34781 -3.1659195 -170.34781 
	-3.1659195 -170.34781 -27.633303 -67.559643 -13.939207 178.02447 
	-3.1659195 -170.34781 -13.939207 178.02447 -27.633303 -67.559643 
1.92 -14.603543 8.7451047 -3.1634313 -171.2549 -3.1634313 -171.2549 
	-3.1634313 -171.2549 -27.797487 -68.608775 -14.020082 177.22337 
	-3.1634313 -171.2549 -14.020082 177.22337 -27.797487 -68.608775 
1.93 -14.673146 7.8378431 -3.1609539 -172.16216 -3.1609539 -172.16216 
	-3.1609539 -172.16216 -27.96309 -69.657299 -14.101638 176.4222 
	-3.1609539 -172.16216 -14.101638 176.4222 -27.96309 -69.657299 
1.94 -14.743604 6.9304065 -3.1584877 -173.06959 -3.1584877 -173.06959 
	-3.1584877 -173.06959 -28.130139 -70.705226 -14.18389 175.62094 
	-3.1584877 -173.06959 -14.18389 175.62094 -28.130139 -70.705226 
1.95 -14.814931 6.0227957 -3.1560328 -173.9772 -3.1560328 -173.9772 
	-3.1560328 -173.9772 -28.298665 -71.752567 -14.266855 174.8196 
	-3.1560328 -173.9772 -14.266855 174.8196 -28.298665 -71.752567 
1.96 -14.887141 5.1150114 -3.1535896 -174.88499 -3.1535896 -174.88499 
	-3.1535896 -174.88499 -28.468698 -72.799335 -14.35055 174.01816 
	-3.1535896 -174.88499 -14.35055 174.01816 -28.468698 -72.799335 
1.97 -14.960252 4.2070543 -3.1511584 -175.79295 -3.1511584 -175.79295 
	-3.1511584 -175.79295 -28.640269 -73.84554 -14.43499 173.21664 
	-3.1511584 -175.79295 -14.43499 173.21664 -28.640269 -73.84554 
1.98 -15.034277 3.2989252 -3.1487395 -176.70107 -3.1487395 -176.70107 
	-3.1487395 -176.70107 -28.813411 -74.891193 -14.520193 172.41501 
	-3.1487395 -176.70107 -14.520193 172.41501 -28.813411 -74.891193 
1.99 -15.109234 2.3906249 -3.1463331 -177.60938 -3.1463331 -177.60938 
	-3.1463331 -177.60938 -28.988156 -75.936305 -14.606176 171.61329 
	-3.1463331 -177.60938 -14.606176 171.61329 -28.988156 -75.936305 
2 -15.185139 1.4821541 -3.1439396 -178.51785 -3.1439396 -178.51785 
	-3.1439396 -178.51785 -29.164539 -76.980887 -14.692959 170.81146 
	-3.1439396 -178.51785 -14.692959 170.81146 -29.164539 -76.980887 
2.01 -15.26201 0.57351376 -3.1415591 -179.42649 -3.1415591 -179.42649 
	-3.1415591 -179.42649 -29.342596 -78.024949 -14.780559 170.00952 
	-3.1415591 -179.42649 -14.780559 170.00952 -29.342596 -78.024949 
2.02 -15.339865 -0.33529532 -3.1391921 179.6647 -3.1391921 179.6647 
	-3.1391921 179.6647 -29.522361 -79.068501 -14.868996 169.20747 
	-3.1391921 179.6647 -14.868996 169.20747 -29.522361 -79.068501 
2.03 -15.418721 -1.2442723 -3.1368388 178.75573 -3.1368388 178.75573 
	-3.1368388 178.75573 -29.703872 -80.111554 -14.958289 168.40531 
	-3.1368388 178.75573 -14.958289 168.40531 -29.703872 -80.111554 
2.04 -15.498599 -2.1534162 -3.1344994 177.84658 -3.1344994 177.84658 
	-3.1344994 177.84658 -29.887168 -81.154117 -15.048459 167.60303 
	-3.1344994 177.84658 -15.048459 167.60303 -29.887168 -81.154117 
2.05 -15.579516 -3.0627262 -3.1321743 176.93727 -3.1321743 176.93727 
	-3.1321743 176.93727 -30.072288 -82.1962 -15.139526 166.80062 
	-3.1321743 176.93727 -15.139526 166.80062 -30.072288 -82.1962 
2.06 -15.661494 -3.9722013 -3.1298637 176.0278 -3.1298637 176.0278 
	-3.1298637 176.0278 -30.259272 -83.237812 -15.231511 165.9981 
	-3.1298637 176.0278 -15.231511 165.9981 -30.259272 -83.237812 
2.07 -15.744553 -4.8818406 -3.1275679 175.11816 -3.1275679 175.11816 
	-3.1275679 175.11816 -30.448164 -84.278964 -15.324437 165.19545 
	-3.1275679 175.11816 -15.324437 165.19545 -30.448164 -84.278964 
2.08 -15.828715 -5.7916431 -3.1252871 174.20836 -3.1252871 174.20836 
	-3.1252871 174.20836 -30.639005 -85.319663 -15.418326 164.39267 
	-3.1252871 174.20836 -15.418326 164.39267 -30.639005 -85.319663 
2.09 -15.914002 -6.7016078 -3.1230218 173.29839 -3.1230218 173.29839 
	-3.1230218 173.29839 -30.831841 -86.35992 -15.513202 163.58977 
	-3.1230218 173.29839 -15.513202 163.58977 -30.831841 -86.35992 
2.1 -16.000437 -7.6117336 -3.120772 172.38827 -3.120772 172.38827 
	-3.120772 172.38827 -31.026718 -87.399743 -15.609089 162.78673 
	-3.120772 172.38827 -15.609089 162.78673 -31.026718 -87.399743 
2.11 -16.088042 -8.5220196 -3.1185382 171.47798 -3.1185382 171.47798 
	-3.1185382 171.47798 -31.223683 -88.439142 -15.70601 161.98356 
	-3.1185382 171.47798 -15.70601 161.98356 -31.223683 -88.439142 
2.12 -16.176844 -9.4324646 -3.1163205 170.56754 -3.1163205 170.56754 
	-3.1163205 170.56754 -31.422786 -89.478123 -15.803993 161.18025 
	-3.1163205 170.56754 -15.803993 161.18025 -31.422786 -89.478123 
2.13 -16.266867 -10.343068 -3.1141193 169.65693 -3.1141193 169.65693 
	-3.1141193 169.65693 -31.624078 -90.516697 -15.903063 160.37681 
	-3.1141193 169.65693 -15.903063 160.37681 -31.624078 -90.516697 
2.14 -16.358136 -11.253828 -3.1119348 168.74617 -3.1119348 168.74617 
	-3.1119348 168.74617 -31.827611 -91.554871 -16.003247 159.57322 
	-3.1119348 168.74617 -16.003247 159.57322 -31.827611 -91.554871 
2.15 -16.45068 -12.164743 -3.1097672 167.83526 -3.1097672 167.83526 
	-3.1097672 167.83526 -32.03344 -92.592654 -16.104574 158.7695 
	-3.1097672 167.83526 -16.104574 158.7695 -32.03344 -92.592654 
2.16 -16.544526 -13.075813 -3.1076169 166.92419 -3.1076169 166.92419 
	-3.1076169 166.92419 -32.241621 -93.630053 -16.207072 157.96564 
	-3.1076169 166.92419 -16.207072 157.96564 -32.241621 -93.630053 
2.17 -16.639703 -13.987037 -3.1054841 166.01296 -3.1054841 166.01296 
	-3.1054841 166.01296 -32.452212 -94.667077 -16.310773 157.16164 
	-3.1054841 166.01296 -16.310773 157.16164 -32.452212 -94.667077 
2.18 -16.736241 -14.898413 -3.103369 165.10159 -3.103369 165.10159 
	-3.103369 165.10159 -32.665275 -95.703733 -16.415705 156.35749 
	-3.103369 165.10159 -16.415705 156.35749 -32.665275 -95.703733 
2.19 -16.834172 -15.80994 -3.101272 164.19006 -3.101272 164.19006 
	-3.101272 164.19006 -32.88087 -96.740028 -16.521903 155.5532 
	-3.101272 164.19006 -16.521903 155.5532 -32.88087 -96.740028 
2.2 -16.933527 -16.721617 -3.0991932 163.27838 -3.0991932 163.27838 
	-3.0991932 163.27838 -33.099065 -97.775972 -16.629399 154.74876 
	-3.0991932 163.27838 -16.629399 154.74876 -33.099065 -97.775972 
2.21 -17.03434 -17.633442 -3.0971329 162.36656 -3.0971329 162.36656 
	-3.0971329 162.36656 -33.319924 -98.81157 -16.738227 153.94418 
	-3.0971329 162.36656 -16.738227 153.94418 -33.319924 -98.81157 
2.22 -17.136646 -18.545415 -3.0950915 161.45459 -3.0950915 161.45459 
	-3.0950915 161.45459 -33.54352 -99.84683 -16.848424 153.13946 
	-3.0950915 161.45459 -16.848424 153.13946 -33.54352 -99.84683 
2.23 -17.240481 -19.457533 -3.093069 160.54247 -3.093069 160.54247 
	-3.093069 160.54247 -33.769923 -100.88176 -16.960026 152.33458 
	-3.093069 160.54247 -16.960026 152.33458 -33.769923 -100.88176 
2.24 -17.345882 -20.369796 -3.0910659 159.6302 -3.0910659 159.6302 
	-3.0910659 159.6302 -33.99921 -101.91637 -17.073072 151.52956 
	-3.0910659 159.6302 -17.073072 151.52956 -33.99921 -101.91637 
2.25 -17.452889 -21.282203 -3.0890822 158.7178 -3.0890822 158.7178 
	-3.0890822 158.7178 -34.231459 -102.95065 -17.187602 150.7244 
	-3.0890822 158.7178 -17.187602 150.7244 -34.231459 -102.95065 
2.26 -17.561542 -22.194752 -3.0871184 157.80525 -3.0871184 157.80525 
	-3.0871184 157.80525 -34.466751 -103.98463 -17.303656 149.91908 
	-3.0871184 157.80525 -17.303656 149.91908 -34.466751 -103.98463 
2.27 -17.671882 -23.107441 -3.0851745 156.89256 -3.0851745 156.89256 
	-3.0851745 156.89256 -34.705171 -105.01831 -17.421279 149.11362 
	-3.0851745 156.89256 -17.421279 149.11362 -34.705171 -105.01831 
2.28 -17.783955 -24.02027 -3.083251 155.97973 -3.083251 155.97973 
	-3.083251 155.97973 -34.946807 -106.05169 -17.540515 148.30801 
	-3.083251 155.97973 -17.540515 148.30801 -34.946807 -106.05169 
2.29 -17.897806 -24.933236 -3.0813479 155.06676 -3.0813479 155.06676 
	-3.0813479 155.06676 -35.191751 -107.08478 -17.661411 147.50226 
	-3.0813479 155.06676 -17.661411 147.50226 -35.191751 -107.08478 
2.3 -18.013482 -25.846339 -3.0794655 154.15366 -3.0794655 154.15366 
	-3.0794655 154.15366 -35.440098 -108.11758 -17.784015 146.69635 
	-3.0794655 154.15366 -17.784015 146.69635 -35.440098 -108.11758 
2.31 -18.131034 -26.759577 -3.0776041 153.24042 -3.0776041 153.24042 
	-3.0776041 153.24042 -35.691949 -109.15011 -17.908378 145.8903 
	-3.0776041 153.24042 -17.908378 145.8903 -35.691949 -109.15011 
2.32 -18.250513 -27.672948 -3.0757639 152.32705 -3.0757639 152.32705 
	-3.0757639 152.32705 -35.947408 -110.18236 -18.034553 145.08411 
	-3.0757639 152.32705 -18.034553 145.08411 -35.947408 -110.18236 
2.33 -18.371973 -28.586452 -3.0739451 151.41355 -3.0739451 151.41355 
	-3.0739451 151.41355 -36.206583 -111.21435 -18.162594 144.27777 
	-3.0739451 151.41355 -18.162594 144.27777 -36.206583 -111.21435 
2.34 -18.495472 -29.500085 -3.072148 150.49991 -3.072148 150.49991 
	-3.072148 150.49991 -36.469587 -112.24608 -18.292559 143.47128 
	-3.072148 150.49991 -18.292559 143.47128 -36.469587 -112.24608 
2.35 -18.621068 -30.413848 -3.0703727 149.58615 -3.0703727 149.58615 
	-3.0703727 149.58615 -36.736541 -113.27756 -18.424508 142.66465 
	-3.0703727 149.58615 -18.424508 142.66465 -36.736541 -113.27756 
2.36 -18.748823 -31.327739 -3.0686196 148.67226 -3.0686196 148.67226 
	-3.0686196 148.67226 -37.007567 -114.30879 -18.558505 141.85787 
	-3.0686196 148.67226 -18.558505 141.85787 -37.007567 -114.30879 
2.37 -18.878803 -32.241755 -3.0668887 147.75824 -3.0668887 147.75824 
	-3.0668887 147.75824 -37.282797 -115.33977 -18.694613 141.05095 
	-3.0668887 147.75824 -18.694613 141.05095 -37.282797 -115.33977 
2.38 -19.011075 -33.155896 -3.0651804 146.8441 -3.0651804 146.8441 
	-3.0651804 146.8441 -37.562366 -116.37052 -18.832904 140.24389 
	-3.0651804 146.8441 -18.832904 140.24389 -37.562366 -116.37052 
2.39 -19.145711 -34.070159 -3.0634949 145.92984 -3.0634949 145.92984 
	-3.0634949 145.92984 -37.846418 -117.40104 -18.973447 139.43669 
	-3.0634949 145.92984 -18.973447 139.43669 -37.846418 -117.40104 
2.4 -19.282785 -34.984544 -3.0618323 145.01546 -3.0618323 145.01546 
	-3.0618323 145.01546 -38.135101 -118.43133 -19.116319 138.62935 
	-3.0618323 145.01546 -19.116319 138.62935 -38.135101 -118.43133 
2.41 -19.422377 -35.899048 -3.0601929 144.10095 -3.0601929 144.10095 
	-3.0601929 144.10095 -38.428575 -119.46141 -19.2616 137.82187 
	-3.0601929 144.10095 -19.2616 137.82187 -38.428575 -119.46141 
2.42 -19.564568 -36.81367 -3.0585768 143.18633 -3.0585768 143.18633 
	-3.0585768 143.18633 -38.727004 -120.49126 -19.409373 137.01424 
	-3.0585768 143.18633 -19.409373 137.01424 -38.727004 -120.49126 
2.43 -19.709446 -37.728409 -3.0569844 142.27159 -3.0569844 142.27159 
	-3.0569844 142.27159 -39.030562 -121.52091 -19.559724 136.20649 
	-3.0569844 142.27159 -19.559724 136.20649 -39.030562 -121.52091 
2.44 -19.857103 -38.643262 -3.0554157 141.35674 -3.0554157 141.35674 
	-3.0554157 141.35674 -39.339434 -122.55035 -19.712747 135.39859 
	-3.0554157 141.35674 -19.712747 135.39859 -39.339434 -122.55035 
2.45 -20.007635 -39.558227 -3.053871 140.44177 -3.053871 140.44177 
	-3.053871 140.44177 -39.653811 -123.57959 -19.868539 134.59057 
	-3.053871 140.44177 -19.868539 134.59057 -39.653811 -123.57959 
2.46 -20.161143 -40.473304 -3.0523504 139.5267 -3.0523504 139.5267 