! AWR Design Environment (19377) Fri Dec 26 15:43:53 2025
! Document = 'symbolic_2_way_bi'
! nPorts: 3, nXvals: 401

# GHz S DB R 50
!Freq DBS11 AngS11 DBS12 AngS12 DBS13 AngS13 
!	DBS21 AngS21 DBS22 AngS22 DBS23 AngS23 
!	DBS31 AngS31 DBS32 AngS32 DBS33 AngS33 
1 -12.223918 61.870257 -3.278675 -118.09001 -3.278675 -118.09001 
	-3.278675 -118.09001 -24.893128 -51.547564 -12.835532 -131.27892 
	-3.278675 -118.09001 -12.835532 -131.27892 -24.893128 -51.547564 
1.01 -12.283631 60.67319 -3.2748963 -119.28655 -3.2748963 -119.28655 
	-3.2748963 -119.28655 -25.061573 -54.169073 -12.942767 -132.23167 
	-3.2748963 -119.28655 -12.942767 -132.23167 -25.061573 -54.169073 
1.02 -12.344193 59.475753 -3.2711198 -120.48345 -3.2711198 -120.48345 
	-3.2711198 -120.48345 -25.226447 -56.817985 -13.050662 -133.18294 
	-3.2711198 -120.48345 -13.050662 -133.18294 -25.226447 -56.817985 
1.03 -12.405615 58.277948 -3.2673465 -121.68071 -3.2673465 -121.68071 
	-3.2673465 -121.68071 -25.387448 -59.493971 -13.159248 -134.13272 
	-3.2673465 -121.68071 -13.159248 -134.13272 -25.387448 -59.493971 
1.04 -12.467905 57.079775 -3.2635772 -122.87834 -3.2635772 -122.87834 
	-3.2635772 -122.87834 -25.544269 -62.19654 -13.268555 -135.081 
	-3.2635772 -122.87834 -13.268555 -135.081 -25.544269 -62.19654 
1.05 -12.531073 55.881235 -3.2598128 -124.07633 -3.2598128 -124.07633 
	-3.2598128 -124.07633 -25.6966 -64.92502 -13.378616 -136.02778 
	-3.2598128 -124.07633 -13.378616 -136.02778 -25.6966 -64.92502 
1.06 -12.595129 54.68233 -3.2560543 -125.27467 -3.2560543 -125.27467 
	-3.2560543 -125.27467 -25.844128 -67.678559 -13.48946 -136.97304 
	-3.2560543 -125.27467 -13.48946 -136.97304 -25.844128 -67.678559 
1.07 -12.660083 53.483062 -3.2523025 -126.47338 -3.2523025 -126.47338 
	-3.2523025 -126.47338 -25.986544 -70.456113 -13.601122 -137.91676 
	-3.2523025 -126.47338 -13.601122 -137.91676 -25.986544 -70.456113 
1.08 -12.725945 52.283431 -3.2485584 -127.67244 -3.2485584 -127.67244 
	-3.2485584 -127.67244 -26.123544 -73.256439 -13.713634 -138.85891 
	-3.2485584 -127.67244 -13.713634 -138.85891 -26.123544 -73.256439 
1.09 -12.792726 51.08344 -3.2448228 -128.87185 -3.2448228 -128.87185 
	-3.2448228 -128.87185 -26.254833 -76.078098 -13.827028 -139.79947 
	-3.2448228 -128.87185 -13.827028 -139.79947 -26.254833 -76.078098 
1.1 -12.860437 49.883089 -3.2410965 -130.07162 -3.2410965 -130.07162 
	-3.2410965 -130.07162 -26.380126 -78.919453 -13.941339 -140.73841 
	-3.2410965 -130.07162 -13.941339 -140.73841 -26.380126 -78.919453 
1.11 -12.929089 48.682382 -3.2373805 -131.27174 -3.2373805 -131.27174 
	-3.2373805 -131.27174 -26.499157 -81.778673 -14.056602 -141.67567 
	-3.2373805 -131.27174 -14.056602 -141.67567 -26.499157 -81.778673 
1.12 -12.998692 47.481319 -3.2336757 -132.4722 -3.2336757 -132.4722 
	-3.2336757 -132.4722 -26.611677 -84.653741 -14.17285 -142.61122 
	-3.2336757 -132.4722 -14.17285 -142.61122 -26.611677 -84.653741 
1.13 -13.069259 46.279903 -3.2299829 -133.67302 -3.2299829 -133.67302 
	-3.2299829 -133.67302 -26.71746 -87.542465 -14.29012 -143.54502 
	-3.2299829 -133.67302 -14.29012 -143.54502 -26.71746 -87.542465 
1.14 -13.140801 45.078135 -3.2263028 -134.87418 -3.2263028 -134.87418 
	-3.2263028 -134.87418 -26.816306 -90.442491 -14.408449 -144.477 
	-3.2263028 -134.87418 -14.408449 -144.477 -26.816306 -90.442491 
1.15 -13.213331 43.876019 -3.2226365 -136.07567 -3.2226365 -136.07567 
	-3.2226365 -136.07567 -26.908047 -93.351324 -14.527872 -145.4071 
	-3.2226365 -136.07567 -14.527872 -145.4071 -26.908047 -93.351324 
1.16 -13.286861 42.673556 -3.2189847 -137.27751 -3.2189847 -137.27751 
	-3.2189847 -137.27751 -26.992543 -96.266346 -14.648429 -146.33527 
	-3.2189847 -137.27751 -14.648429 -146.33527 -26.992543 -96.266346 
1.17 -13.361403 41.470749 -3.2153482 -138.47969 -3.2153482 -138.47969 
	-3.2153482 -138.47969 -27.069692 -99.184844 -14.770158 -147.26143 
	-3.2153482 -138.47969 -14.770158 -147.26143 -27.069692 -99.184844 
1.18 -13.436971 40.2676 -3.2117279 -139.6822 -3.2117279 -139.6822 
	-3.2117279 -139.6822 -27.139427 -102.10403 -14.893097 -148.18549 
	-3.2117279 -139.6822 -14.893097 -148.18549 -27.139427 -102.10403 
1.19 -13.513578 39.064111 -3.2081245 -140.88504 -3.2081245 -140.88504 
	-3.2081245 -140.88504 -27.201717 -105.02108 -15.017289 -149.10739 
	-3.2081245 -140.88504 -15.017289 -149.10739 -27.201717 -105.02108 
1.2 -13.591237 37.860287 -3.2045389 -142.08821 -3.2045389 -142.08821 
	-3.2045389 -142.08821 -27.256573 -107.93315 -15.142774 -150.02702 
	-3.2045389 -142.08821 -15.142774 -150.02702 -27.256573 -107.93315 
1.21 -13.669963 36.656128 -3.2009719 -143.2917 -3.2009719 -143.2917 
	-3.2009719 -143.2917 -27.304039 -110.83742 -15.269594 -150.9443 
	-3.2009719 -143.2917 -15.269594 -150.9443 -27.304039 -110.83742 
1.22 -13.74977 35.451639 -3.1974241 -144.49552 -3.1974241 -144.49552 
	-3.1974241 -144.49552 -27.3442 -113.73111 -15.397793 -151.85912 
	-3.1974241 -144.49552 -15.397793 -151.85912 -27.3442 -113.73111 
1.23 -13.830672 34.246821 -3.1938965 -145.69965 -3.1938965 -145.69965 
	-3.1938965 -145.69965 -27.377175 -116.6115 -15.527416 -152.77136 
	-3.1938965 -145.69965 -15.527416 -152.77136 -27.377175 -116.6115 
1.24 -13.912685 33.041679 -3.1903898 -146.90411 -3.1903898 -146.90411 
	-3.1903898 -146.90411 -27.403118 -119.47599 -15.658508 -153.68091 
	-3.1903898 -146.90411 -15.658508 -153.68091 -27.403118 -119.47599 
1.25 -13.995824 31.836214 -3.1869046 -148.10887 -3.1869046 -148.10887 
	-3.1869046 -148.10887 -27.422215 -122.32211 -15.791117 -154.58765 
	-3.1869046 -148.10887 -15.791117 -154.58765 -27.422215 -122.32211 
1.26 -14.080106 30.630431 -3.1834418 -149.31394 -3.1834418 -149.31394 
	-3.1834418 -149.31394 -27.43468 -125.14749 -15.925291 -155.49143 
	-3.1834418 -149.31394 -15.925291 -155.49143 -27.43468 -125.14749 
1.27 -14.165545 29.424333 -3.1800021 -150.51932 -3.1800021 -150.51932 
	-3.1800021 -150.51932 -27.440753 -127.94997 -16.06108 -156.39212 
	-3.1800021 -150.51932 -16.06108 -156.39212 -27.440753 -127.94997 
1.28 -14.25216 28.217922 -3.1765861 -151.725 -3.1765861 -151.725 
	-3.1765861 -151.725 -27.440694 -130.72753 -16.198534 -157.28955 
	-3.1765861 -151.725 -16.198534 -157.28955 -27.440694 -130.72753 
1.29 -14.339967 27.011203 -3.1731946 -152.93098 -3.1731946 -152.93098 
	-3.1731946 -152.93098 -27.434786 -133.47835 -16.337707 -158.18357 
	-3.1731946 -152.93098 -16.337707 -158.18357 -27.434786 -133.47835 
1.3 -14.428984 25.804179 -3.1698283 -154.13725 -3.1698283 -154.13725 
	-3.1698283 -154.13725 -27.423322 -136.2008 -16.478654 -159.07399 
	-3.1698283 -154.13725 -16.478654 -159.07399 -27.423322 -136.2008 
1.31 -14.519229 24.596853 -3.1664879 -155.34381 -3.1664879 -155.34381 
	-3.1664879 -155.34381 -27.406611 -138.89344 -16.62143 -159.96064 
	-3.1664879 -155.34381 -16.62143 -159.96064 -27.406611 -138.89344 
1.32 -14.610721 23.389229 -3.1631739 -156.55066 -3.1631739 -156.55066 
	-3.1631739 -156.55066 -27.384966 -141.55504 -16.766093 -160.84332 
	-3.1631739 -156.55066 -16.766093 -160.84332 -27.384966 -141.55504 
1.33 -14.70348 22.18131 -3.1598871 -157.7578 -3.1598871 -157.7578 
	-3.1598871 -157.7578 -27.358708 -144.18454 -16.912704 -161.7218 
	-3.1598871 -157.7578 -16.912704 -161.7218 -27.358708 -144.18454 
1.34 -14.797524 20.973101 -3.1566281 -158.96521 -3.1566281 -158.96521 
	-3.1566281 -158.96521 -27.328155 -146.78107 -17.061324 -162.59587 
	-3.1566281 -158.96521 -17.061324 -162.59587 -27.328155 -146.78107 
1.35 -14.892874 19.764606 -3.1533975 -160.17289 -3.1533975 -160.17289 
	-3.1533975 -160.17289 -27.293629 -149.34396 -17.212018 -163.46529 
	-3.1533975 -160.17289 -17.212018 -163.46529 -27.293629 -149.34396 
1.36 -14.989552 18.555827 -3.1501959 -161.38084 -3.1501959 -161.38084 
	-3.1501959 -161.38084 -27.255444 -151.87269 -17.364853 -164.3298 
	-3.1501959 -161.38084 -17.364853 -164.3298 -27.255444 -151.87269 
1.37 -15.087579 17.346769 -3.1470239 -162.58906 -3.1470239 -162.58906 
	-3.1470239 -162.58906 -27.21391 -154.36689 -17.519896 -165.18913 
	-3.1470239 -162.58906 -17.519896 -165.18913 -27.21391 -154.36689 
1.38 -15.186976 16.137436 -3.1438822 -163.79755 -3.1438822 -163.79755 
	-3.1438822 -163.79755 -27.169329 -156.82638 -17.67722 -166.04298 
	-3.1438822 -163.79755 -17.67722 -166.04298 -27.169329 -156.82638 
1.39 -15.287768 14.927833 -3.1407712 -165.00628 -3.1407712 -165.00628 
	-3.1407712 -165.00628 -27.121993 -159.25107 -17.836898 -166.89104 
	-3.1407712 -165.00628 -17.836898 -166.89104 -27.121993 -159.25107 
1.4 -15.389977 13.717962 -3.1376915 -166.21527 -3.1376915 -166.21527 
	-3.1376915 -166.21527 -27.072184 -161.64102 -17.999007 -167.73298 
	-3.1376915 -166.21527 -17.999007 -167.73298 -27.072184 -161.64102 
1.41 -15.493628 12.507828 -3.1346437 -167.42451 -3.1346437 -167.42451 
	-3.1346437 -167.42451 -27.020172 -163.99639 -18.163629 -168.56844 
	-3.1346437 -167.42451 -18.163629 -168.56844 -27.020172 -163.99639 
1.42 -15.598745 11.297436 -3.1316282 -168.63399 -3.1316282 -168.63399 
	-3.1316282 -168.63399 -26.966215 -166.31745 -18.330844 -169.39704 
	-3.1316282 -168.63399 -18.330844 -169.39704 -26.966215 -166.31745 
1.43 -15.705356 10.086789 -3.1286457 -169.84371 -3.1286457 -169.84371 
	-3.1286457 -169.84371 -26.910555 -168.60455 -18.50074 -170.21838 
	-3.1286457 -169.84371 -18.50074 -170.21838 -26.910555 -168.60455 
1.44 -15.813487 8.8758922 -3.1256965 -171.05366 -3.1256965 -171.05366 
	-3.1256965 -171.05366 -26.853426 -170.85811 -18.673407 -171.03201 
	-3.1256965 -171.05366 -18.673407 -171.03201 -26.853426 -170.85811 
1.45 -15.923165 7.6647491 -3.1227811 -172.26384 -3.1227811 -172.26384 
	-3.1227811 -172.26384 -26.795045 -173.07862 -18.848938 -171.83746 
	-3.1227811 -172.26384 -18.848938 -171.83746 -26.795045 -173.07862 
1.46 -16.03442 6.4533641 -3.1199 -173.47425 -3.1199 -173.47425 
	-3.1199 -173.47425 -26.735617 -175.26663 -19.027432 -172.63423 
	-3.1199 -173.47425 -19.027432 -172.63423 -26.735617 -175.26663 
1.47 -16.147279 5.2417416 -3.1170537 -174.68487 -3.1170537 -174.68487 
	-3.1170537 -174.68487 -26.675332 -177.42273 -19.208988 -173.42178 
	-3.1170537 -174.68487 -19.208988 -173.42178 -26.675332 -177.42273 
1.48 -16.261776 4.0298859 -3.1142425 -175.89571 -3.1142425 -175.89571 
	-3.1142425 -175.89571 -26.61437 -179.54756 -19.393714 -174.19953 
	-3.1142425 -175.89571 -19.393714 -174.19953 -26.61437 -179.54756 
1.49 -16.377939 2.8178012 -3.111467 -177.10676 -3.111467 -177.10676 
	-3.111467 -177.10676 -26.552896 178.35823 -19.581721 -174.96683 
	-3.111467 -177.10676 -19.581721 -174.96683 -26.552896 178.35823 
1.5 -16.495804 1.6054919 -3.1087274 -178.31801 -3.1087274 -178.31801 
	-3.1087274 -178.31801 -26.491065 176.29395 -19.773122 -175.72303 
	-3.1087274 -178.31801 -19.773122 -175.72303 -26.491065 176.29395 
1.51 -16.615403 0.39296241 -3.1060241 -179.52946 -3.1060241 -179.52946 
	-3.1060241 -179.52946 -26.429019 174.25891 -19.968039 -176.46738 
	-3.1060241 -179.52946 -19.968039 -176.46738 -26.429019 174.25891 
1.52 -16.736772 -0.81978309 -3.1033575 179.2589 -3.1033575 179.2589 
	-3.1033575 179.2589 -26.366889 172.2524 -20.166598 -177.19909 
	-3.1033575 179.2589 -20.166598 -177.19909 -26.366889 172.2524 
1.53 -16.859947 -2.0327402 -3.100728 178.04707 -3.100728 178.04707 
	-3.100728 178.04707 -26.304795 170.27371 -20.36893 -177.9173 
	-3.100728 178.04707 -20.36893 -177.9173 -26.304795 170.27371 
1.54 -16.984966 -3.2459047 -3.0981359 176.83506 -3.0981359 176.83506 
	-3.0981359 176.83506 -26.24285 168.32211 -20.575171 -178.62109 
	-3.0981359 176.83506 -20.575171 -178.62109 -26.24285 168.32211 
1.55 -17.111868 -4.4592723 -3.0955814 175.62286 -3.0955814 175.62286 
	-3.0955814 175.62286 -26.181152 166.39689 -20.785465 -179.30944 
	-3.0955814 175.62286 -20.785465 -179.30944 -26.181152 166.39689 
1.56 -17.240694 -5.6728386 -3.0930649 174.4105 -3.0930649 174.4105 
	-3.0930649 174.4105 -26.119796 164.49734 -20.999962 -179.98127 
	-3.0930649 174.4105 -20.999962 -179.98127 -26.119796 164.49734 
1.57 -17.371487 -6.8865995 -3.0905867 173.19797 -3.0905867 173.19797 
	-3.0905867 173.19797 -26.058865 162.62276 -21.218816 179.36462 
	-3.0905867 173.19797 -21.218816 179.36462 -26.058865 162.62276 
1.58 -17.50429 -8.1005508 -3.088147 171.98527 -3.088147 171.98527 
	-3.088147 171.98527 -25.998436 160.77246 -21.442191 178.72954 
	-3.088147 171.98527 -21.442191 178.72954 -25.998436 160.77246 
1.59 -17.639149 -9.3146883 -3.085746 170.77242 -3.085746 170.77242 
	-3.085746 170.77242 -25.938576 158.94576 -21.670256 178.11491 
	-3.085746 170.77242 -21.670256 178.11491 -25.938576 158.94576 
1.6 -17.776112 -10.529008 -3.0833839 169.55942 -3.0833839 169.55942 
	-3.0833839 169.55942 -25.879349 157.14199 -21.903187 177.52227 
	-3.0833839 169.55942 -21.903187 177.52227 -25.879349 157.14199 
1.61 -17.915228 -11.743506 -3.0810611 168.34627 -3.0810611 168.34627 
	-3.0810611 168.34627 -25.820811 155.36051 -22.141167 176.95333 
	-3.0810611 168.34627 -22.141167 176.95333 -25.820811 155.36051 
1.62 -18.056549 -12.958177 -3.0787776 167.13297 -3.0787776 167.13297 
	-3.0787776 167.13297 -25.76301 153.60068 -22.384386 176.40994 
	-3.0787776 167.13297 -22.384386 176.40994 -25.76301 153.60068 
1.63 -18.20013 -14.173019 -3.0765336 165.91955 -3.0765336 165.91955 
	-3.0765336 165.91955 -25.705993 151.86188 -22.633041 175.89418 
	-3.0765336 165.91955 -22.633041 175.89418 -25.705993 151.86188 
1.64 -18.346026 -15.388027 -3.0743293 164.70599 -3.0743293 164.70599 
	-3.0743293 164.70599 -25.649798 150.14352 -22.887334 175.40827 
	-3.0743293 164.70599 -22.887334 175.40827 -25.649798 150.14352 
1.65 -18.494296 -16.603198 -3.0721649 163.49231 -3.0721649 163.49231 
	-3.0721649 163.49231 -25.59446 148.445 -23.147474 174.95472 
	-3.0721649 163.49231 -23.147474 174.95472 -25.59446 148.445 
1.66 -18.645001 -17.818528 -3.0700403 162.27851 -3.0700403 162.27851 
	-3.0700403 162.27851 -25.54001 146.76577 -23.413674 174.53627 
	-3.0700403 162.27851 -23.413674 174.53627 -25.54001 146.76577 
1.67 -18.798206 -19.034012 -3.0679558 161.06459 -3.0679558 161.06459 
	-3.0679558 161.06459 -25.486475 145.10528 -23.686149 174.15595 
	-3.0679558 161.06459 -23.686149 174.15595 -25.486475 145.10528 
1.68 -18.953977 -20.249649 -3.0659114 159.85057 -3.0659114 159.85057 
	-3.0659114 159.85057 -25.433877 143.463 -23.965117 173.81713 
	-3.0659114 159.85057 -23.965117 173.81713 -25.433877 143.463 
1.69 -19.112386 -21.465435 -3.0639072 158.63644 -3.0639072 158.63644 
	-3.0639072 158.63644 -25.382237 141.83842 -24.250795 173.52352 
	-3.0639072 158.63644 -24.250795 173.52352 -25.382237 141.83842 
1.7 -19.273505 -22.681366 -3.0619432 157.42222 -3.0619432 157.42222 
	-3.0619432 157.42222 -25.331571 140.23105 -24.543395 173.27928 
	-3.0619432 157.42222 -24.543395 173.27928 -25.331571 140.23105 
1.71 -19.437412 -23.897439 -3.0600195 156.2079 -3.0600195 156.2079 
	-3.0600195 156.2079 -25.281893 138.6404 -24.843119 173.089 
	-3.0600195 156.2079 -24.843119 173.089 -25.281893 138.6404 
1.72 -19.604188 -25.113652 -3.058136 154.9935 -3.058136 154.9935 
	-3.058136 154.9935 -25.233213 137.06603 -25.150156 172.95781 
	-3.058136 154.9935 -25.150156 172.95781 -25.233213 137.06603 
1.73 -19.773917 -26.330002 -3.0562928 153.77901 -3.0562928 153.77901 
	-3.0562928 153.77901 -25.185542 135.50749 -25.464672 172.89143 
	-3.0562928 153.77901 -25.464672 172.89143 -25.185542 135.50749 
1.74 -19.946691 -27.546487 -3.0544898 152.56445 -3.0544898 152.56445 
	-3.0544898 152.56445 -25.138885 133.96436 -25.786801 172.89623 
	-3.0544898 152.56445 -25.786801 172.89623 -25.138885 133.96436 
1.75 -20.122602 -28.763104 -3.0527271 151.34981 -3.0527271 151.34981 
	-3.0527271 151.34981 -25.093247 132.43622 -26.116631 172.9793 
	-3.0527271 151.34981 -26.116631 172.9793 -25.093247 132.43622 
1.76 -20.30175 -29.979852 -3.0510045 150.13511 -3.0510045 150.13511 
	-3.0510045 150.13511 -25.048631 130.92268 -26.454193 173.14856 
	-3.0510045 150.13511 -26.454193 173.14856 -25.048631 130.92268 
1.77 -20.48424 -31.196729 -3.049322 148.92035 -3.049322 148.92035 
	-3.049322 148.92035 -25.005039 129.42336 -26.799431 173.41282 
	-3.049322 148.92035 -26.799431 173.41282 -25.005039 129.42336 
1.78 -20.670182 -32.413733 -3.0476795 147.70553 -3.0476795 147.70553 
	-3.0476795 147.70553 -24.96247 127.9379 -27.152186 173.78189 
	-3.0476795 147.70553 -27.152186 173.78189 -24.96247 127.9379 
1.79 -20.859692 -33.630863 -3.0460769 146.49066 -3.0460769 146.49066 
	-3.0460769 146.49066 -24.920922 126.46594 -27.512154 174.2666 
	-3.0460769 146.49066 -27.512154 174.2666 -24.920922 126.46594 
1.8 -21.052895 -34.848119 -3.044514 145.27574 -3.044514 145.27574 
	-3.044514 145.27574 -24.880392 125.00716 -27.878853 174.87893 
	-3.044514 145.27574 -27.878853 174.87893 -24.880392 125.00716 
1.81 -21.24992 -36.0655 -3.0429908 144.06079 -3.0429908 144.06079 
	-3.0429908 144.06079 -24.840877 123.56121 -28.251565 175.63199 
	-3.0429908 144.06079 -28.251565 175.63199 -24.840877 123.56121 
1.82 -21.450907 -37.283007 -3.041507 142.8458 -3.041507 142.8458 
	-3.041507 142.8458 -24.80237 122.12779 -28.629276 176.53999 
	-3.041507 142.8458 -28.629276 176.53999 -24.80237 122.12779 
1.83 -21.656002 -38.500639 -3.0400626 141.63078 -3.0400626 141.63078 
	-3.0400626 141.63078 -24.764867 120.70661 -29.010604 177.61815 
	-3.0400626 141.63078 -29.010604 177.61815 -24.764867 120.70661 
1.84 -21.865361 -39.718399 -3.0386573 140.41573 -3.0386573 140.41573 
	-3.0386573 140.41573 -24.72836 119.29737 -29.39371 178.88248 
	-3.0386573 140.41573 -29.39371 178.88248 -24.72836 119.29737 
1.85 -22.07915 -40.936288 -3.0372909 139.20066 -3.0372909 139.20066 
	-3.0372909 139.20066 -24.692841 117.89979 -29.776201 -179.65067 
	-3.0372909 139.20066 -29.776201 -179.65067 -24.692841 117.89979 
1.86 -22.297547 -42.154308 -3.0359632 137.98558 -3.0359632 137.98558 
	-3.0359632 137.98558 -24.658302 116.51361 -30.155034 -177.96524 
	-3.0359632 137.98558 -30.155034 -177.96524 -24.658302 116.51361 
1.87 -22.520741 -43.372462 -3.034674 136.77048 -3.034674 136.77048 
	-3.034674 136.77048 -24.624734 115.13858 -30.526413 -176.04638 
	-3.034674 136.77048 -30.526413 -176.04638 -24.624734 115.13858 
1.88 -22.748933 -44.590753 -3.0334231 135.55538 -3.0334231 135.55538 
	-3.0334231 135.55538 -24.592126 113.77444 -30.885721 -173.88181 
	-3.0334231 135.55538 -30.885721 -173.88181 -24.592126 113.77444 
1.89 -22.982339 -45.809188 -3.0322101 134.34028 -3.0322101 134.34028 
	-3.0322101 134.34028 -24.56047 112.42096 -31.227496 -171.46348 
	-3.0322101 134.34028 -31.227496 -171.46348 -24.56047 112.42096 
1.9 -23.221191 -47.02777 -3.0310348 133.12518 -3.0310348 133.12518 
	-3.0310348 133.12518 -24.529754 111.07791 -31.545478 -168.78962 
	-3.0310348 133.12518 -31.545478 -168.78962 -24.529754 111.07791 
1.91 -23.465738 -48.246508 -3.029897 131.91009 -3.029897 131.91009 
	-3.029897 131.91009 -24.499967 109.74507 -31.832788 -165.86698 
	-3.029897 131.91009 -31.832788 -165.86698 -24.499967 109.74507 
1.92 -23.716247 -49.465408 -3.0287962 130.69501 -3.0287962 130.69501 
	-3.0287962 130.69501 -24.471098 108.42223 -32.08224 -162.7129 
	-3.0287962 130.69501 -32.08224 -162.7129 -24.471098 108.42223 
1.93 -23.973007 -50.684481 -3.0277323 129.47995 -3.0277323 129.47995 
	-3.0277323 129.47995 -24.443134 107.10919 -32.286816 -159.35681 
	-3.0277323 129.47995 -32.286816 -159.35681 -24.443134 107.10919 
1.94 -24.236328 -51.903737 -3.0267048 128.26491 -3.0267048 128.26491 
	-3.0267048 128.26491 -24.416064 105.80575 -32.440263 -155.84058 
	-3.0267048 128.26491 -32.440263 -155.84058 -24.416064 105.80575 
1.95 -24.506548 -53.123188 -3.0257134 127.04989 -3.0257134 127.04989 
	-3.0257134 127.04989 -24.389876 104.51173 -32.537737 -152.21729 
	-3.0257134 127.04989 -32.537737 -152.21729 -24.389876 104.51173 
1.96 -24.784032 -54.34285 -3.0247578 125.8349 -3.0247578 125.8349 
	-3.0247578 125.8349 -24.364555 103.22693 -32.576375 -148.54819 
	-3.0247578 125.8349 -32.576375 -148.54819 -24.364555 103.22693 
1.97 -25.069177 -55.562739 -3.0238376 124.61995 -3.0238376 124.61995 
	-3.0238376 124.61995 -24.340091 101.95119 -32.55566 -144.89821 
	-3.0238376 124.61995 -32.55566 -144.89821 -24.340091 101.95119 
1.98 -25.362415 -56.782875 -3.0229524 123.40503 -3.0229524 123.40503 
	-3.0229524 123.40503 -24.316469 100.68434 -32.477489 -141.33081 
	-3.0229524 123.40503 -32.477489 -141.33081 -24.316469 100.68434 
1.99 -25.664219 -58.003281 -3.0221019 122.19016 -3.0221019 122.19016 
	-3.0221019 122.19016 -24.293676 99.426211 -32.345928 -137.903 
	-3.0221019 122.19016 -32.345928 -137.903 -24.293676 99.426211 
2 -25.975107 -59.223982 -3.0212855 120.97533 -3.0212855 120.97533 
	-3.0212855 120.97533 -24.271699 98.176649 -32.166714 -134.6617 
	-3.0212855 120.97533 -32.166714 -134.6617 -24.271699 98.176649 
2.01 -26.295646 -60.44501 -3.020503 119.76055 -3.020503 119.76055 
	-3.020503 119.76055 -24.250525 96.935503 -31.946622 -131.64168 
	-3.020503 119.76055 -31.946622 -131.64168 -24.250525 96.935503 
2.02 -26.626464 -61.666399 -3.0197538 118.54583 -3.0197538 118.54583 
	-3.0197538 118.54583 -24.230139 95.702625 -31.692839 -128.86532 
	-3.0197538 118.54583 -31.692839 -128.86532 -24.230139 95.702625 
2.03 -26.968253 -62.88819 -3.0190376 117.33116 -3.0190376 117.33116 
	-3.0190376 117.33116 -24.210528 94.477873 -31.412431 -126.34365 
	-3.0190376 117.33116 -31.412431 -126.34365 -24.210528 94.477873 
2.04 -27.321781 -64.11043 -3.0183539 116.11656 -3.0183539 116.11656 
	-3.0183539 116.11656 -24.191679 93.261111 -31.111956 -124.07826 
	-3.0183539 116.11656 -31.111956 -124.07826 -24.191679 93.261111 
2.05 -27.687904 -65.333175 -3.0177022 114.90201 -3.0177022 114.90201 
	-3.0177022 114.90201 -24.173577 92.052206 -30.797236 -122.06352 
	-3.0177022 114.90201 -30.797236 -122.06352 -24.173577 92.052206 
2.06 -28.067578 -66.556491 -3.0170821 113.68754 -3.0170821 113.68754 
	-3.0170821 113.68754 -24.156208 90.851029 -30.473257 -120.28872 
	-3.0170821 113.68754 -30.473257 -120.28872 -24.156208 90.851029 
2.07 -28.461877 -67.780453 -3.016493 112.47314 -3.016493 112.47314 
	-3.016493 112.47314 -24.139558 89.657455 -30.144163 -118.73993 
	-3.016493 112.47314 -30.144163 -118.73993 -24.139558 89.657455 
2.08 -28.872015 -69.005153 -3.0159346 111.25881 -3.0159346 111.25881 
	-3.0159346 111.25881 -24.123614 88.471365 -29.813316 -117.40146 
	-3.0159346 111.25881 -29.813316 -117.40146 -24.123614 88.471365 
2.09 -29.299364 -70.230699 -3.0154062 110.04456 -3.0154062 110.04456 
	-3.0154062 110.04456 -24.108361 87.29264 -29.48338 -116.25699 
	-3.0154062 110.04456 -29.48338 -116.25699 -24.108361 87.29264 
2.1 -29.745493 -71.45722 -3.0149075 108.83039 -3.0149075 108.83039 
	-3.0149075 108.83039 -24.093786 86.121167 -29.156424 -115.2903 
	-3.0149075 108.83039 -29.156424 -115.2903 -24.093786 86.121167 
2.11 -30.212201 -72.684873 -3.0144378 107.6163 -3.0144378 107.6163 
	-3.0144378 107.6163 -24.079873 84.956836 -28.834022 -114.48581 
	-3.0144378 107.6163 -28.834022 -114.48581 -24.079873 84.956836 
2.12 -30.701565 -73.913848 -3.0139966 106.40231 -3.0139966 106.40231 
	-3.0139966 106.40231 -24.06661 83.799539 -28.517341 -113.82884 
	-3.0139966 106.40231 -28.517341 -113.82884 -24.06661 83.799539 
2.13 -31.216002 -75.144378 -3.0135835 105.1884 -3.0135835 105.1884 
	-3.0135835 105.1884 -24.053982 82.649172 -28.207223 -113.30581 
	-3.0135835 105.1884 -28.207223 -113.30581 -24.053982 82.649172 
2.14 -31.758348 -76.376755 -3.0131979 103.97458 -3.0131979 103.97458 
	-3.0131979 103.97458 -24.041975 81.505632 -27.904253 -112.90426 
	-3.0131979 103.97458 -27.904253 -112.90426 -24.041975 81.505632 
2.15 -32.331959 -77.611341 -3.0128393 102.76086 -3.0128393 102.76086 
	-3.0128393 102.76086 -24.030575 80.36882 -27.608811 -112.61287 
	-3.0128393 102.76086 -27.608811 -112.61287 -24.030575 80.36882 
2.16 -32.940848 -78.848601 -3.012507 101.54724 -3.012507 101.54724 
	-3.012507 101.54724 -24.019768 79.238639 -27.32112 -112.4214 
	-3.012507 101.54724 -27.32112 -112.4214 -24.019768 79.238639 
2.17 -33.589867 -80.089132 -3.0122006 100.33371 -3.0122006 100.33371 
	-3.0122006 100.33371 -24.00954 78.114995 -27.041284 -112.32063 
	-3.0122006 100.33371 -27.041284 -112.32063 -24.00954 78.114995 
2.18 -34.284964 -81.333719 -3.0119194 99.120291 -3.0119194 99.120291 
	-3.0119194 99.120291 -23.999877 76.997795 -26.769313 -112.30227 
	-3.0119194 99.120291 -26.769313 -112.30227 -23.999877 76.997795 
2.19 -35.033531 -82.583413 -3.011663 97.906974 -3.011663 97.906974 
	-3.011663 97.906974 -23.990766 75.886948 -26.505149 -112.35887 
	-3.011663 97.906974 -26.505149 -112.35887 -23.990766 75.886948 
2.2 -35.844925 -83.839655 -3.0114307 96.693765 -3.0114307 96.693765 
	-3.0114307 96.693765 -23.982192 74.782366 -26.248682 -112.48377 
	-3.0114307 96.693765 -26.248682 -112.48377 -23.982192 74.782366 
2.21 -36.731219 -85.104473 -3.0112219 95.480664 -3.0112219 95.480664 
	-3.0112219 95.480664 -23.974141 73.683962 -25.999766 -112.67098 
	-3.0112219 95.480664 -25.999766 -112.67098 -23.974141 73.683962 
2.22 -37.708384 -86.380811 -3.0110361 94.267675 -3.0110361 94.267675 
	-3.0110361 94.267675 -23.966601 72.59165 -25.758229 -112.91513 
	-3.0110361 94.267675 -25.758229 -112.91513 -23.966601 72.59165 
2.23 -38.798154 -87.673122 -3.0108727 93.054798 -3.0108727 93.054798 
	-3.0108727 93.054798 -23.959557 71.505347 -25.52388 -113.2114 
	-3.0108727 93.054798 -25.52388 -113.2114 -23.959557 71.505347 
2.24 -40.031199 -88.988464 -3.0107312 91.842036 -3.0107312 91.842036 
	-3.0107312 91.842036 -23.952996 70.42497 -25.296518 -113.55545 
	-3.0107312 91.842036 -25.296518 -113.55545 -23.952996 70.42497 
2.25 -41.452804 -90.338733 -3.0106108 90.62939 -3.0106108 90.62939 
	-3.0106108 90.62939 -23.946904 69.350439 -25.075935 -113.94339 
	-3.0106108 90.62939 -25.075935 -113.94339 -23.946904 69.350439 
2.26 -43.133942 -91.745672 -3.010511 89.416862 -3.010511 89.416862 
	-3.010511 89.416862 -23.941268 68.281673 -24.861923 -114.37169 
	-3.010511 89.416862 -24.861923 -114.37169 -23.941268 68.281673 
2.27 -45.195325 -93.253698 -3.0104313 88.204453 -3.0104313 88.204453 
	-3.0104313 88.204453 -23.936074 67.218593 -24.654271 -114.83719 
	-3.0104313 88.204453 -24.654271 -114.83719 -23.936074 67.218593 
2.28 -47.868468 -94.969876 -3.0103709 86.992164 -3.0103709 86.992164 
	-3.0103709 86.992164 -23.931309 66.161123 -24.452773 -115.33702 
	-3.0103709 86.992164 -24.452773 -115.33702 -23.931309 66.161123 
2.29 -51.693716 -97.234353 -3.0103294 85.779998 -3.0103294 85.779998 
	-3.0103294 85.779998 -23.926961 65.109184 -24.257226 -115.86858 
	-3.0103294 85.779998 -24.257226 -115.86858 -23.926961 65.109184 
2.3 -58.551285 -102.00602 -3.010306 84.567955 -3.010306 84.567955 
	-3.010306 84.567955 -23.923014 64.062702 -24.067434 -116.42952 
	-3.010306 84.567955 -24.067434 -116.42952 -23.923014 64.062702 
2.31 -71.374985 113.04291 -3.0103003 83.356036 -3.0103003 83.356036 
	-3.0103003 83.356036 -23.919458 63.021601 -23.883205 -117.0177 
	-3.0103003 83.356036 -23.883205 -117.0177 -23.919458 63.021601 
2.32 -55.748454 86.788224 -3.0103115 82.144242 -3.0103115 82.144242 
	-3.0103115 82.144242 -23.916278 61.985806 -23.704354 -117.63118 
	-3.0103115 82.144242 -23.704354 -117.63118 -23.916278 61.985806 
2.33 -50.446697 83.422218 -3.0103391 80.932574 -3.0103391 80.932574 
	-3.0103391 80.932574 -23.913462 60.955244 -23.530705 -118.26818 
	-3.0103391 80.932574 -23.530705 -118.26818 -23.913462 60.955244 
2.34 -47.208883 81.414324 -3.0103825 79.721032 -3.0103825 79.721032 
	-3.0103825 79.721032 -23.910998 59.929842 -23.362085 -118.92709 
	-3.0103825 79.721032 -23.362085 -118.92709 -23.910998 59.929842 
2.35 -44.881016 79.788268 -3.0104411 78.509618 -3.0104411 78.509618 
	-3.0104411 78.509618 -23.908871 58.909526 -23.198332 -119.60643 
	-3.0104411 78.509618 -23.198332 -119.60643 -23.908871 58.909526 
2.36 -43.068081 78.322595 -3.0105142 77.298332 -3.0105142 77.298332 
	-3.0105142 77.298332 -23.907071 57.894225 -23.039288 -120.30483 
	-3.0105142 77.298332 -23.039288 -120.30483 -23.907071 57.894225 
2.37 -41.587014 76.939384 -3.0106013 76.087175 -3.0106013 76.087175 
	-3.0106013 76.087175 -23.905584 56.883867 -22.884804 -121.02107 
	-3.0106013 76.087175 -22.884804 -121.02107 -23.905584 56.883867 
2.38 -40.337871 75.604182 -3.0107018 74.876146 -3.0107018 74.876146 
	-3.0107018 74.876146 -23.904398 55.878379 -22.734736 -121.75399 
	-3.0107018 74.876146 -22.734736 -121.75399 -23.904398 55.878379 
2.39 -39.260073 74.299403 -3.010815 73.665246 -3.010815 73.665246 
	-3.010815 73.665246 -23.903501 54.877691 -22.588948 -122.50254 
	-3.010815 73.665246 -22.588948 -122.50254 -23.903501 54.877691 
2.4 -38.314111 73.015135 -3.0109403 72.454476 -3.0109403 72.454476 
	-3.0109403 72.454476 -23.902881 53.881731 -22.447309 -123.26577 
	-3.0109403 72.454476 -22.447309 -123.26577 -23.902881 53.881731 
2.41 -37.472789 71.745363 -3.0110772 71.243834 -3.0110772 71.243834 
	-3.0110772 71.243834 -23.902525 52.890428 -22.309694 -124.04276 
	-3.0110772 71.243834 -22.309694 -124.04276 -23.902525 52.890428 
2.42 -36.716584 70.486226 -3.011225 70.033322 -3.011225 70.033322 
	-3.011225 70.033322 -23.902423 51.903712 -22.175986 -124.8327 
	-3.011225 70.033322 -22.175986 -124.8327 -23.902423 51.903712 
2.43 -36.031008 69.235132 -3.0113832 68.822939 -3.0113832 68.822939 
	-3.0113832 68.822939 -23.902561 50.921511 -22.046071 -125.63483 
	-3.0113832 68.822939 -22.046071 -125.63483 -23.902561 50.921511 
2.44 -35.405013 67.990278 -3.0115512 67.612685 -3.0115512 67.612685 
	-3.0115512 67.612685 -23.90293 49.943755 -21.91984 -126.44843 
	-3.0115512 67.612685 -21.91984 -126.44843 -23.90293 49.943755 
2.45 -34.829983 66.750367 -3.0117284 66.40256 -3.0117284 66.40256 
	-3.0117284 66.40256 -23.903516 48.970373 -21.797193 -127.27284 
	-3.0117284 66.40256 -21.797193 -127.27284 -23.903516 48.970373 
2.46 -34.299068 65.514446 -3.0119142 65.192562 -3.0119142 65.192562 
	-3.0119142 65.192562 -23.90431 48.001294 -21.678029 -128.10746 
	-3.0119142 65.192562 -21.678029 -128.10746 -23.90431 48.001294 
2.47 -33.806735 64.281797 -3.012108 63.982692 -3.012108 63.982692 
	-3.012108 63.982692 -23.905299 47.036448 -21.562257 -128.95172 
	-3.012108 63.982692 -21.562257 -128.95172 -23.905299 47.036448 