! AWR Design Environment (19377) Sat Dec 27 00:59:08 2025
! Document = 'symbolic_2_way'
! nPorts: 3, nXvals: 401

# GHz S DB R 50
!Freq DBS11 AngS11 DBS12 AngS12 DBS13 AngS13 
!	DBS21 AngS21 DBS22 AngS22 DBS23 AngS23 
!	DBS31 AngS31 DBS32 AngS32 DBS33 AngS33 
1 -12.05896 61.886997 -3.2894057 -118.12044 -3.2894057 -118.12044 
	-3.2894057 -118.12044 -19.677521 -37.365522 -11.890779 -141.87565 
	-3.2894057 -118.12044 -11.890779 -141.87565 -19.677521 -37.365522 
1.01 -12.114339 60.691225 -3.2857548 -119.3163 -3.2857548 -119.3163 
	-3.2857548 -119.3163 -19.790887 -39.055067 -11.981515 -142.9699 
	-3.2857548 -119.3163 -11.981515 -142.9699 -19.790887 -39.055067 
1.02 -12.170475 59.49511 -3.2821042 -120.51252 -3.2821042 -120.51252 
	-3.2821042 -120.51252 -19.904292 -40.740894 -12.072443 -144.06384 
	-3.2821042 -120.51252 -12.072443 -144.06384 -19.904292 -40.740894 
1.03 -12.227375 58.298651 -3.2784548 -121.70907 -3.2784548 -121.70907 
	-3.2784548 -121.70907 -20.017747 -42.423073 -12.163581 -145.15753 
	-3.2784548 -121.70907 -12.163581 -145.15753 -20.017747 -42.423073 
1.04 -12.285047 57.101851 -3.2748074 -122.90597 -3.2748074 -122.90597 
	-3.2748074 -122.90597 -20.131264 -44.101672 -12.254944 -146.25103 
	-3.2748074 -122.90597 -12.254944 -146.25103 -20.131264 -44.101672 
1.05 -12.343498 55.90471 -3.2711629 -124.10321 -3.2711629 -124.10321 
	-3.2711629 -124.10321 -20.244852 -45.776758 -12.346551 -147.34441 
	-3.2711629 -124.10321 -12.346551 -147.34441 -20.244852 -45.776758 
1.06 -12.402735 54.707229 -3.2675221 -125.30079 -3.2675221 -125.30079 
	-3.2675221 -125.30079 -20.358524 -47.448392 -12.438418 -148.43772 
	-3.2675221 -125.30079 -12.438418 -148.43772 -20.358524 -47.448392 
1.07 -12.462767 53.509411 -3.2638859 -126.49871 -3.2638859 -126.49871 
	-3.2638859 -126.49871 -20.472288 -49.116637 -12.530562 -149.53103 
	-3.2638859 -126.49871 -12.530562 -149.53103 -20.472288 -49.116637 
1.08 -12.523601 52.311255 -3.260255 -127.69697 -3.260255 -127.69697 
	-3.260255 -127.69697 -20.586157 -50.781551 -12.623 -150.62437 
	-3.260255 -127.69697 -12.623 -150.62437 -20.586157 -50.781551 
1.09 -12.585246 51.112764 -3.2566304 -128.89556 -3.2566304 -128.89556 
	-3.2566304 -128.89556 -20.700141 -52.443192 -12.715751 -151.71782 
	-3.2566304 -128.89556 -12.715751 -151.71782 -20.700141 -52.443192 
1.1 -12.647709 49.913939 -3.2530127 -130.09449 -3.2530127 -130.09449 
	-3.2530127 -130.09449 -20.814252 -54.101612 -12.808829 -152.81141 
	-3.2530127 -130.09449 -12.808829 -152.81141 -20.814252 -54.101612 
1.11 -12.710998 48.714782 -3.2494028 -131.29375 -3.2494028 -131.29375 
	-3.2494028 -131.29375 -20.9285 -55.756866 -12.902254 -153.9052 
	-3.2494028 -131.29375 -12.902254 -153.9052 -20.9285 -55.756866 
1.12 -12.775123 47.515295 -3.2458016 -132.49334 -3.2458016 -132.49334 
	-3.2458016 -132.49334 -21.042897 -57.409003 -12.996043 -154.99923 
	-3.2458016 -132.49334 -12.996043 -154.99923 -21.042897 -57.409003 
1.13 -12.840092 46.31548 -3.2422097 -133.69326 -3.2422097 -133.69326 
	-3.2422097 -133.69326 -21.157453 -59.058072 -13.090212 -156.09355 
	-3.2422097 -133.69326 -13.090212 -156.09355 -21.157453 -59.058072 
1.14 -12.905914 45.115337 -3.238628 -134.89351 -3.238628 -134.89351 
	-3.238628 -134.89351 -21.272179 -60.70412 -13.18478 -157.1882 
	-3.238628 -134.89351 -13.18478 -157.1882 -21.272179 -60.70412 
1.15 -12.972598 43.914871 -3.2350573 -136.09409 -3.2350573 -136.09409 
	-3.2350573 -136.09409 -21.387088 -62.34719 -13.279764 -158.28323 
	-3.2350573 -136.09409 -13.279764 -158.28323 -21.387088 -62.34719 
1.16 -13.040152 42.714082 -3.2314984 -137.29499 -3.2314984 -137.29499 
	-3.2314984 -137.29499 -21.50219 -63.987328 -13.375181 -159.37867 
	-3.2314984 -137.29499 -13.375181 -159.37867 -21.50219 -63.987328 
1.17 -13.108587 41.512973 -3.227952 -138.49621 -3.227952 -138.49621 
	-3.227952 -138.49621 -21.617497 -65.624573 -13.47105 -160.47456 
	-3.227952 -138.49621 -13.47105 -160.47456 -21.617497 -65.624573 
1.18 -13.177913 40.311547 -3.2244189 -139.69774 -3.2244189 -139.69774 
	-3.2244189 -139.69774 -21.733019 -67.258965 -13.567388 -161.57095 
	-3.2244189 -139.69774 -13.567388 -161.57095 -21.733019 -67.258965 
1.19 -13.248138 39.109805 -3.2208998 -140.8996 -3.2208998 -140.8996 
	-3.2208998 -140.8996 -21.848769 -68.890542 -13.664213 -162.66787 
	-3.2208998 -140.8996 -13.664213 -162.66787 -21.848769 -68.890542 
1.2 -13.319273 37.907751 -3.2173954 -142.10177 -3.2173954 -142.10177 
	-3.2173954 -142.10177 -21.964757 -70.519341 -13.761543 -163.76535 
	-3.2173954 -142.10177 -13.761543 -163.76535 -21.964757 -70.519341 
1.21 -13.391329 36.705387 -3.2139066 -143.30425 -3.2139066 -143.30425 
	-3.2139066 -143.30425 -22.080996 -72.145396 -13.859397 -164.86343 
	-3.2139066 -143.30425 -13.859397 -164.86343 -22.080996 -72.145396 
1.22 -13.464315 35.502715 -3.2104341 -144.50703 -3.2104341 -144.50703 
	-3.2104341 -144.50703 -22.197497 -73.76874 -13.957793 -165.96215 
	-3.2104341 -144.50703 -13.957793 -165.96215 -22.197497 -73.76874 
1.23 -13.538242 34.299739 -3.2069785 -145.71013 -3.2069785 -145.71013 
	-3.2069785 -145.71013 -22.31427 -75.389405 -14.056749 -167.06152 
	-3.2069785 -145.71013 -14.056749 -167.06152 -22.31427 -75.389405 
1.24 -13.613122 33.096461 -3.2035405 -146.91353 -3.2035405 -146.91353 
	-3.2035405 -146.91353 -22.431329 -77.007421 -14.156283 -168.1616 
	-3.2035405 -146.91353 -14.156283 -168.1616 -22.431329 -77.007421 
1.25 -13.688965 31.892884 -3.200121 -148.11722 -3.200121 -148.11722 
	-3.200121 -148.11722 -22.548685 -78.622817 -14.256415 -169.2624 
	-3.200121 -148.11722 -14.256415 -169.2624 -22.548685 -78.622817 
1.26 -13.765783 30.689011 -3.1967205 -149.32122 -3.1967205 -149.32122 
	-3.1967205 -149.32122 -22.666349 -80.23562 -14.357164 -170.36396 
	-3.1967205 -149.32122 -14.357164 -170.36396 -22.666349 -80.23562 
1.27 -13.843587 29.484846 -3.1933397 -150.52551 -3.1933397 -150.52551 
	-3.1933397 -150.52551 -22.784333 -81.845857 -14.458548 -171.4663 
	-3.1933397 -150.52551 -14.458548 -171.4663 -22.784333 -81.845857 
1.28 -13.92239 28.280392 -3.1899794 -151.73008 -3.1899794 -151.73008 
	-3.1899794 -151.73008 -22.90265 -83.453552 -14.560586 -172.56945 
	-3.1899794 -151.73008 -14.560586 -172.56945 -22.90265 -83.453552 
1.29 -14.002204 27.075652 -3.1866401 -152.93495 -3.1866401 -152.93495 
	-3.1866401 -152.93495 -23.02131 -85.058728 -14.663299 -173.67345 
	-3.1866401 -152.93495 -14.663299 -173.67345 -23.02131 -85.058728 
1.3 -14.08304 25.870629 -3.1833225 -154.1401 -3.1833225 -154.1401 
	-3.1833225 -154.1401 -23.140327 -86.661407 -14.766706 -174.77831 
	-3.1833225 -154.1401 -14.766706 -174.77831 -23.140327 -86.661407 
1.31 -14.164913 24.665326 -3.1800273 -155.34553 -3.1800273 -155.34553 
	-3.1800273 -155.34553 -23.259712 -88.26161 -14.870826 -175.88407 
	-3.1800273 -155.34553 -14.870826 -175.88407 -23.259712 -88.26161 
1.32 -14.247835 23.459748 -3.176755 -156.55124 -3.176755 -156.55124 
	-3.176755 -156.55124 -23.379478 -89.859357 -14.97568 -176.99075 
	-3.176755 -156.55124 -14.97568 -176.99075 -23.379478 -89.859357 
1.33 -14.331819 22.253898 -3.1735064 -157.75722 -3.1735064 -157.75722 
	-3.1735064 -157.75722 -23.499636 -91.454665 -15.081288 -178.09837 
	-3.1735064 -157.75722 -15.081288 -178.09837 -23.499636 -91.454665 
1.34 -14.41688 21.047779 -3.1702819 -158.96348 -3.1702819 -158.96348 
	-3.1702819 -158.96348 -23.620199 -93.047553 -15.187671 -179.20696 
	-3.1702819 -158.96348 -15.187671 -179.20696 -23.620199 -93.047553 
1.35 -14.50303 19.841396 -3.1670822 -160.17 -3.1670822 -160.17 
	-3.1670822 -160.17 -23.741179 -94.638035 -15.29485 179.68346 
	-3.1670822 -160.17 -15.29485 179.68346 -23.741179 -94.638035 
1.36 -14.590286 18.634751 -3.1639078 -161.37678 -3.1639078 -161.37678 
	-3.1639078 -161.37678 -23.86259 -96.226126 -15.402846 178.57285 
	-3.1639078 -161.37678 -15.402846 178.57285 -23.86259 -96.226126 
1.37 -14.678661 17.42785 -3.1607594 -162.58382 -3.1607594 -162.58382 
	-3.1607594 -162.58382 -23.984443 -97.811841 -15.51168 177.46121 
	-3.1607594 -162.58382 -15.51168 177.46121 -23.984443 -97.811841 
1.38 -14.76817 16.220695 -3.1576375 -163.79112 -3.1576375 -163.79112 
	-3.1576375 -163.79112 -24.10675 -99.395191 -15.621374 176.3485 
	-3.1576375 -163.79112 -15.621374 176.3485 -24.10675 -99.395191 
1.39 -14.85883 15.013291 -3.1545425 -164.99866 -3.1545425 -164.99866 
	-3.1545425 -164.99866 -24.229526 -100.97619 -15.73195 175.2347 
	-3.1545425 -164.99866 -15.73195 175.2347 -24.229526 -100.97619 
1.4 -14.950656 13.805642 -3.1514751 -166.20646 -3.1514751 -166.20646 
	-3.1514751 -166.20646 -24.352783 -102.55484 -15.843431 174.11978 
	-3.1514751 -166.20646 -15.843431 174.11978 -24.352783 -102.55484 
1.41 -15.043664 12.597752 -3.1484358 -167.4145 -3.1484358 -167.4145 
	-3.1484358 -167.4145 -24.476533 -104.13116 -15.955839 173.00374 
	-3.1484358 -167.4145 -15.955839 173.00374 -24.476533 -104.13116 
1.42 -15.137872 11.389625 -3.145425 -168.62277 -3.145425 -168.62277 
	-3.145425 -168.62277 -24.600791 -105.70515 -16.069198 171.88653 
	-3.145425 -168.62277 -16.069198 171.88653 -24.600791 -105.70515 
1.43 -15.233296 10.181266 -3.1424433 -169.83128 -3.1424433 -169.83128 
	-3.1424433 -169.83128 -24.725568 -107.27683 -16.183532 170.76814 
	-3.1424433 -169.83128 -16.183532 170.76814 -24.725568 -107.27683 
1.44 -15.329954 8.9726782 -3.139491 -171.04002 -3.139491 -171.04002 
	-3.139491 -171.04002 -24.850879 -108.84619 -16.298864 169.64854 
	-3.139491 -171.04002 -16.298864 169.64854 -24.850879 -108.84619 
1.45 -15.427864 7.7638664 -3.1365687 -172.24899 -3.1365687 -172.24899 
	-3.1365687 -172.24899 -24.976737 -110.41324 -16.415219 168.52771 
	-3.1365687 -172.24899 -16.415219 168.52771 -24.976737 -110.41324 
1.46 -15.527046 6.5548352 -3.1336769 -173.45818 -3.1336769 -173.45818 
	-3.1336769 -173.45818 -25.103155 -111.97799 -16.532623 167.40563 
	-3.1336769 -173.45818 -16.532623 167.40563 -25.103155 -111.97799 
1.47 -15.627518 5.3455887 -3.1308159 -174.66759 -3.1308159 -174.66759 
	-3.1308159 -174.66759 -25.230148 -113.54043 -16.6511 166.28227 
	-3.1308159 -174.66759 -16.6511 166.28227 -25.230148 -113.54043 
1.48 -15.7293 4.1361316 -3.1279861 -175.87721 -3.1279861 -175.87721 
	-3.1279861 -175.87721 -25.357729 -115.10057 -16.770677 165.1576 
	-3.1279861 -175.87721 -16.770677 165.1576 -25.357729 -115.10057 
1.49 -15.832412 2.9264683 -3.125188 -177.08704 -3.125188 -177.08704 
	-3.125188 -177.08704 -25.485912 -116.65842 -16.89138 164.03161 
	-3.125188 -177.08704 -16.89138 164.03161 -25.485912 -116.65842 
1.5 -15.936876 1.7166035 -3.1224219 -178.29707 -3.1224219 -178.29707 
	-3.1224219 -178.29707 -25.614712 -118.21396 -17.013237 162.90427 
	-3.1224219 -178.29707 -17.013237 162.90427 -25.614712 -118.21396 
1.51 -16.042712 0.50654165 -3.1196883 -179.50731 -3.1196883 -179.50731 
	-3.1196883 -179.50731 -25.744142 -119.7672 -17.136275 161.77554 
	-3.1196883 -179.50731 -17.136275 161.77554 -25.744142 -119.7672 
1.52 -16.149943 -0.70371249 -3.1169874 179.28227 -3.1169874 179.28227 
	-3.1169874 179.28227 -25.874218 -121.31813 -17.260523 160.64541 
	-3.1169874 179.28227 -17.260523 160.64541 -25.874218 -121.31813 
1.53 -16.258592 -1.9141543 -3.1143197 178.07165 -3.1143197 178.07165 
	-3.1143197 178.07165 -26.004954 -122.86676 -17.38601 159.51384 
	-3.1143197 178.07165 -17.38601 159.51384 -26.004954 -122.86676 
1.54 -16.368682 -3.124779 -3.1116854 176.86084 -3.1116854 176.86084 
	-3.1116854 176.86084 -26.136365 -124.41307 -17.512766 158.38082 
	-3.1116854 176.86084 -17.512766 158.38082 -26.136365 -124.41307 
1.55 -16.480238 -4.3355818 -3.1090848 175.64986 -3.1090848 175.64986 
	-3.1090848 175.64986 -26.268466 -125.95706 -17.640821 157.2463 
	-3.1090848 175.64986 -17.640821 157.2463 -26.268466 -125.95706 
1.56 -16.593284 -5.5465581 -3.1065183 174.43869 -3.1065183 174.43869 
	-3.1065183 174.43869 -26.401273 -127.49872 -17.770208 156.11025 
	-3.1065183 174.43869 -17.770208 156.11025 -26.401273 -127.49872 
1.57 -16.707847 -6.7577029 -3.1039861 173.22736 -3.1039861 173.22736 
	-3.1039861 173.22736 -26.5348 -129.03805 -17.900957 154.97266 
	-3.1039861 173.22736 -17.900957 154.97266 -26.5348 -129.03805 
1.58 -16.823952 -7.9690115 -3.1014886 172.01586 -3.1014886 172.01586 
	-3.1014886 172.01586 -26.669064 -130.57504 -18.033103 153.83348 
	-3.1014886 172.01586 -18.033103 153.83348 -26.669064 -130.57504 
1.59 -16.941628 -9.1804789 -3.0990258 170.8042 -3.0990258 170.8042 
	-3.0990258 170.8042 -26.804081 -132.10967 -18.166679 152.69269 
	-3.0990258 170.8042 -18.166679 152.69269 -26.804081 -132.10967 
1.6 -17.060902 -10.3921 -3.0965982 169.59237 -3.0965982 169.59237 
	-3.0965982 169.59237 -26.939867 -133.64193 -18.30172 151.55024 
	-3.0965982 169.59237 -18.30172 151.55024 -26.939867 -133.64193 
1.61 -17.181804 -11.603871 -3.0942058 168.3804 -3.0942058 168.3804 
	-3.0942058 168.3804 -27.076437 -135.17182 -18.438262 150.4061 
	-3.0942058 168.3804 -18.438262 150.4061 -27.076437 -135.17182 
1.62 -17.304365 -12.815786 -3.091849 167.16828 -3.091849 167.16828 
	-3.091849 167.16828 -27.21381 -136.69931 -18.576343 149.26024 
	-3.091849 167.16828 -18.576343 149.26024 -27.21381 -136.69931 
1.63 -17.428615 -14.027839 -3.0895279 165.95601 -3.0895279 165.95601 
	-3.0895279 165.95601 -27.352001 -138.2244 -18.716 148.11261 
	-3.0895279 165.95601 -18.716 148.11261 -27.352001 -138.2244 
1.64 -17.554588 -15.240028 -3.0872426 164.74361 -3.0872426 164.74361 
	-3.0872426 164.74361 -27.491028 -139.74706 -18.857273 146.96317 
	-3.0872426 164.74361 -18.857273 146.96317 -27.491028 -139.74706 
1.65 -17.682316 -16.452345 -3.0849933 163.53107 -3.0849933 163.53107 
	-3.0849933 163.53107 -27.630909 -141.26728 -19.000203 145.81188 
	-3.0849933 163.53107 -19.000203 145.81188 -27.630909 -141.26728 
1.66 -17.811835 -17.664787 -3.0827802 162.3184 -3.0827802 162.3184 
	-3.0827802 162.3184 -27.771661 -142.78504 -19.144831 144.65869 
	-3.0827802 162.3184 -19.144831 144.65869 -27.771661 -142.78504 
1.67 -17.94318 -18.877348 -3.0806034 161.10561 -3.0806034 161.10561 
	-3.0806034 161.10561 -27.913303 -144.30033 -19.291201 143.50356 
	-3.0806034 161.10561 -19.291201 143.50356 -27.913303 -144.30033 
1.68 -18.076389 -20.090024 -3.078463 159.8927 -3.078463 159.8927 
	-3.078463 159.8927 -28.055852 -145.81311 -19.439357 142.34643 
	-3.078463 159.8927 -19.439357 142.34643 -28.055852 -145.81311 
1.69 -18.2115 -21.302808 -3.0763591 158.67968 -3.0763591 158.67968 
	-3.0763591 158.67968 -28.199329 -147.32337 -19.589347 141.18726 
	-3.0763591 158.67968 -19.589347 141.18726 -28.199329 -147.32337 
1.7 -18.348554 -22.515698 -3.0742918 157.46655 -3.0742918 157.46655 
	-3.0742918 157.46655 -28.34375 -148.83108 -19.741217 140.02598 
	-3.0742918 157.46655 -19.741217 140.02598 -28.34375 -148.83108 
1.71 -18.487592 -23.728686 -3.0722611 156.25331 -3.0722611 156.25331 
	-3.0722611 156.25331 -28.489137 -150.33621 -19.895018 138.86254 
	-3.0722611 156.25331 -19.895018 138.86254 -28.489137 -150.33621 
1.72 -18.628658 -24.941769 -3.0702671 155.03997 -3.0702671 155.03997 
	-3.0702671 155.03997 -28.635509 -151.83875 -20.050802 137.69687 
	-3.0702671 155.03997 -20.050802 137.69687 -28.635509 -151.83875 
1.73 -18.771796 -26.154941 -3.0683098 153.82654 -3.0683098 153.82654 
	-3.0683098 153.82654 -28.782886 -153.33866 -20.208621 136.52891 
	-3.0683098 153.82654 -20.208621 136.52891 -28.782886 -153.33866 
1.74 -18.917054 -27.368198 -3.0663893 152.61301 -3.0663893 152.61301 
	-3.0663893 152.61301 -28.931289 -154.83591 -20.368532 135.3586 
	-3.0663893 152.61301 -20.368532 135.3586 -28.931289 -154.83591 
1.75 -19.06448 -28.581533 -3.0645055 151.3994 -3.0645055 151.3994 
	-3.0645055 151.3994 -29.080738 -156.33047 -20.530591 134.18584 
	-3.0645055 151.3994 -20.530591 134.18584 -29.080738 -156.33047 
1.76 -19.214125 -29.794943 -3.0626584 150.18571 -3.0626584 150.18571 
	-3.0626584 150.18571 -29.231256 -157.82231 -20.694859 133.01057 
	-3.0626584 150.18571 -20.694859 133.01057 -29.231256 -157.82231 
1.77 -19.366042 -31.008423 -3.0608481 148.97195 -3.0608481 148.97195 
	-3.0608481 148.97195 -29.382864 -159.31139 -20.861399 131.83271 
	-3.0608481 148.97195 -20.861399 131.83271 -29.382864 -159.31139 
1.78 -19.520286 -32.221967 -3.0590744 147.75811 -3.0590744 147.75811 
	-3.0590744 147.75811 -29.535585 -160.79767 -21.030275 130.65216 
	-3.0590744 147.75811 -21.030275 130.65216 -29.535585 -160.79767 
1.79 -19.676913 -33.43557 -3.0573373 146.54421 -3.0573373 146.54421 
	-3.0573373 146.54421 -29.689441 -162.28112 -21.201556 129.46883 
	-3.0573373 146.54421 -21.201556 129.46883 -29.689441 -162.28112 
1.8 -19.835985 -34.649227 -3.0556367 145.33024 -3.0556367 145.33024 
	-3.0556367 145.33024 -29.844455 -163.7617 -21.375311 128.28261 
	-3.0556367 145.33024 -21.375311 128.28261 -29.844455 -163.7617 
1.81 -19.997564 -35.862934 -3.0539726 144.11622 -3.0539726 144.11622 
	-3.0539726 144.11622 -30.000653 -165.23936 -21.551614 127.09341 
	-3.0539726 144.11622 -21.551614 127.09341 -30.000653 -165.23936 
1.82 -20.161715 -37.076686 -3.0523449 142.90214 -3.0523449 142.90214 
	-3.0523449 142.90214 -30.158058 -166.71406 -21.730543 125.90111 
	-3.0523449 142.90214 -21.730543 125.90111 -30.158058 -166.71406 
1.83 -20.328507 -38.290477 -3.0507533 141.68801 -3.0507533 141.68801 
	-3.0507533 141.68801 -30.316694 -168.18575 -21.912179 124.70557 
	-3.0507533 141.68801 -21.912179 124.70557 -30.316694 -168.18575 
1.84 -20.498011 -39.504303 -3.0491979 140.47384 -3.0491979 140.47384 
	-3.0491979 140.47384 -30.476589 -169.65438 -22.096605 123.50668 
	-3.0491979 140.47384 -22.096605 123.50668 -30.476589 -169.65438 
1.85 -20.670303 -40.718159 -3.0476784 139.25963 -3.0476784 139.25963 
	-3.0476784 139.25963 -30.637767 -171.11991 -22.28391 122.3043 
	-3.0476784 139.25963 -22.28391 122.3043 -30.637767 -171.11991 
1.86 -20.845461 -41.932039 -3.0461948 138.04539 -3.0461948 138.04539 
	-3.0461948 138.04539 -30.800256 -172.58227 -22.474187 121.09826 
	-3.0461948 138.04539 -22.474187 121.09826 -30.800256 -172.58227 
1.87 -21.023568 -43.14594 -3.0447467 136.83111 -3.0447467 136.83111 
	-3.0447467 136.83111 -30.964084 -174.04142 -22.667532 119.88842 
	-3.0447467 136.83111 -22.667532 119.88842 -30.964084 -174.04142 
1.88 -21.20471 -44.359855 -3.0433342 135.61681 -3.0433342 135.61681 
	-3.0433342 135.61681 -31.129278 -175.49728 -22.864049 118.67459 
	-3.0433342 135.61681 -22.864049 118.67459 -31.129278 -175.49728 
1.89 -21.388979 -45.573781 -3.0419568 134.40249 -3.0419568 134.40249 
	-3.0419568 134.40249 -31.295868 -176.94981 -23.063844 117.45659 
	-3.0419568 134.40249 -23.063844 117.45659 -31.295868 -176.94981 
1.9 -21.576471 -46.787712 -3.0406146 133.18815 -3.0406146 133.18815 
	-3.0406146 133.18815 -31.463883 -178.39894 -23.267031 116.23421 
	-3.0406146 133.18815 -23.267031 116.23421 -31.463883 -178.39894 
1.91 -21.767286 -48.001644 -3.0393071 131.97379 -3.0393071 131.97379 
	-3.0393071 131.97379 -31.633354 -179.84459 -23.473728 115.00725 
	-3.0393071 131.97379 -23.473728 115.00725 -31.633354 -179.84459 
1.92 -21.961532 -49.215571 -3.0380342 130.75943 -3.0380342 130.75943 
	-3.0380342 130.75943 -31.804312 178.7133 -23.684061 113.77546 
	-3.0380342 130.75943 -23.684061 113.77546 -31.804312 178.7133 
1.93 -22.15932 -50.429489 -3.0367957 129.54506 -3.0367957 129.54506 
	-3.0367957 129.54506 -31.976789 177.2748 -23.898164 112.53859 
	-3.0367957 129.54506 -23.898164 112.53859 -31.976789 177.2748 
1.94 -22.360769 -51.643393 -3.0355913 128.33069 -3.0355913 128.33069 
	-3.0355913 128.33069 -32.150818 175.84 -24.116176 111.29637 
	-3.0355913 128.33069 -24.116176 111.29637 -32.150818 175.84 
1.95 -22.566004 -52.857278 -3.0344206 127.11632 -3.0344206 127.11632 
	-3.0344206 127.11632 -32.326434 174.40898 -24.338245 110.0485 
	-3.0344206 127.11632 -24.338245 110.0485 -32.326434 174.40898 
1.96 -22.775158 -54.07114 -3.0332835 125.90195 -3.0332835 125.90195 
	-3.0332835 125.90195 -32.503671 172.98182 -24.564529 108.79465 
	-3.0332835 125.90195 -24.564529 108.79465 -32.503671 172.98182 
1.97 -22.988373 -55.284972 -3.0321796 124.6876 -3.0321796 124.6876 
	-3.0321796 124.6876 -32.682565 171.55861 -24.795194 107.53447 
	-3.0321796 124.6876 -24.795194 107.53447 -32.682565 171.55861 
1.98 -23.205796 -56.498771 -3.0311086 123.47326 -3.0311086 123.47326 
	-3.0311086 123.47326 -32.863153 170.13945 -25.030419 106.26757 
	-3.0311086 123.47326 -25.030419 106.26757 -32.863153 170.13945 
1.99 -23.427587 -57.712531 -3.0300703 122.25894 -3.0300703 122.25894 
	-3.0300703 122.25894 -33.045474 168.72444 -25.270391 104.99355 
	-3.0300703 122.25894 -25.270391 104.99355 -33.045474 168.72444 
2 -23.653915 -58.926248 -3.0290642 121.04465 -3.0290642 121.04465 
	-3.0290642 121.04465 -33.229566 167.31367 -25.515311 103.71192 
	-3.0290642 121.04465 -25.515311 103.71192 -33.229566 167.31367 
2.01 -23.884958 -60.139916 -3.02809 119.83037 -3.02809 119.83037 
	-3.02809 119.83037 -33.41547 165.90727 -25.765394 102.4222 
	-3.02809 119.83037 -25.765394 102.4222 -33.41547 165.90727 
2.02 -24.12091 -61.35353 -3.0271475 118.61613 -3.0271475 118.61613 
	-3.0271475 118.61613 -33.603228 164.50533 -26.020867 101.12382 
	-3.0271475 118.61613 -26.020867 101.12382 -33.603228 164.50533 
2.03 -24.361973 -62.567085 -3.0262361 117.40191 -3.0262361 117.40191 
	-3.0262361 117.40191 -33.792883 163.10799 -26.281975 99.816183 
	-3.0262361 117.40191 -26.281975 99.816183 -33.792883 163.10799 
2.04 -24.608368 -63.780577 -3.0253556 116.18774 -3.0253556 116.18774 
	-3.0253556 116.18774 -33.984478 161.71537 -26.548982 98.498611 
	-3.0253556 116.18774 -26.548982 98.498611 -33.984478 161.71537 
2.05 -24.86033 -64.993998 -3.0245056 114.9736 -3.0245056 114.9736 
	-3.0245056 114.9736 -34.178061 160.3276 -26.822167 97.170361 
	-3.0245056 114.9736 -26.822167 97.170361 -34.178061 160.3276 
2.06 -25.118109 -66.207344 -3.0236857 113.7595 -3.0236857 113.7595 
	-3.0236857 113.7595 -34.373678 158.94483 -27.101832 95.83061 
	-3.0236857 113.7595 -27.101832 95.83061 -34.373678 158.94483 
2.07 -25.381978 -67.420609 -3.0228955 112.54545 -3.0228955 112.54545 
	-3.0228955 112.54545 -34.571378 157.5672 -27.388304 94.478442 
	-3.0228955 112.54545 -27.388304 94.478442 -34.571378 157.5672 
2.08 -25.652228 -68.633788 -3.0221345 111.33145 -3.0221345 111.33145 
	-3.0221345 111.33145 -34.771212 156.19486 -27.681934 93.112837 
	-3.0221345 111.33145 -27.681934 93.112837 -34.771212 156.19486 
2.09 -25.929175 -69.846874 -3.0214025 110.11749 -3.0214025 110.11749 
	-3.0214025 110.11749 -34.973232 154.82798 -27.983099 91.732655 
	-3.0214025 110.11749 -27.983099 91.732655 -34.973232 154.82798 
2.1 -26.213159 -71.05986 -3.0206989 108.9036 -3.0206989 108.9036 
	-3.0206989 108.9036 -35.177492 153.46673 -28.292212 90.336618 
	-3.0206989 108.9036 -28.292212 90.336618 -35.177492 153.46673 
2.11 -26.50455 -72.272741 -3.0200233 107.68976 -3.0200233 107.68976 
	-3.0200233 107.68976 -35.384048 152.1113 -28.609717 88.923291 
	-3.0200233 107.68976 -28.609717 88.923291 -35.384048 152.1113 
2.12 -26.803749 -73.485508 -3.0193753 106.47598 -3.0193753 106.47598 
	-3.0193753 106.47598 -35.592957 150.76188 -28.936098 87.491052 
	-3.0193753 106.47598 -28.936098 87.491052 -35.592957 150.76188 
2.13 -27.111196 -74.698155 -3.0187544 105.26226 -3.0187544 105.26226 
	-3.0187544 105.26226 -35.80428 149.41866 -29.271883 86.038068 
	-3.0187544 105.26226 -29.271883 86.038068 -35.80428 149.41866 
2.14 -27.427367 -75.910673 -3.0181603 104.04861 -3.0181603 104.04861 
	-3.0181603 104.04861 -36.018079 148.08187 -29.617647 84.562256 
	-3.0181603 104.04861 -29.617647 84.562256 -36.018079 148.08187 
2.15 -27.752786 -77.123054 -3.0175924 102.83502 -3.0175924 102.83502 
	-3.0175924 102.83502 -36.234419 146.75174 -29.97402 83.061237 
	-3.0175924 102.83502 -29.97402 83.061237 -36.234419 146.75174 
2.16 -28.088027 -78.335288 -3.0170502 101.62151 -3.0170502 101.62151 
	-3.0170502 101.62151 -36.453366 145.42849 -30.341692 81.532289 
	-3.0170502 101.62151 -30.341692 81.532289 -36.453366 145.42849 
2.17 -28.433725 -79.547366 -3.0165333 100.40806 -3.0165333 100.40806 
	-3.0165333 100.40806 -36.674989 144.1124 -30.721423 79.972279 
	-3.0165333 100.40806 -30.721423 79.972279 -36.674989 144.1124 
2.18 -28.79058 -80.759275 -3.0160413 99.194695 -3.0160413 99.194695 
	-3.0160413 99.194695 -36.899361 142.80372 -31.114048 78.377583 
	-3.0160413 99.194695 -31.114048 78.377583 -36.899361 142.80372 
2.19 -29.159367 -81.971003 -3.0155736 97.981405 -3.0155736 97.981405 
	-3.0155736 97.981405 -37.126555 141.50275 -31.52049 76.743993 
	-3.0155736 97.981405 -31.52049 76.743993 -37.126555 141.50275 
2.2 -29.540953 -83.182536 -3.0151298 96.768193 -3.0151298 96.768193 
	-3.0151298 96.768193 -37.356651 140.20979 -31.941772 75.066593 
	-3.0151298 96.768193 -31.941772 75.066593 -37.356651 140.20979 
2.21 -29.936304 -84.393859 -3.0147093 95.555063 -3.0147093 95.555063 
	-3.0147093 95.555063 -37.589729 138.92517 -32.379026 73.339605 
	-3.0147093 95.555063 -32.379026 73.339605 -37.589729 138.92517 
2.22 -30.346506 -85.604952 -3.0143117 94.342016 -3.0143117 94.342016 
	-3.0143117 94.342016 -37.825871 137.64922 -32.833511 71.556201 
	-3.0143117 94.342016 -32.833511 71.556201 -37.825871 137.64922 
2.23 -30.772784 -86.815795 -3.0139365 93.129054 -3.0139365 93.129054 
	-3.0139365 93.129054 -38.065167 136.38233 -33.306629 69.708258 
	-3.0139365 93.129054 -33.306629 69.708258 -38.065167 136.38233 
2.24 -31.21653 -88.026363 -3.0135831 91.916178 -3.0135831 91.916178 
	-3.0135831 91.916178 -38.307706 135.12487 -33.799943 67.786043 
	-3.0135831 91.916178 -33.799943 67.786043 -38.307706 135.12487 
2.25 -31.679327 -89.236628 -3.0132512 90.703391 -3.0132512 90.703391 
	-3.0132512 90.703391 -38.553584 133.87727 -34.315192 65.77781 
	-3.0132512 90.703391 -34.315192 65.77781 -38.553584 133.87727 
2.26 -32.162996 -90.446556 -3.01294 89.490694 -3.01294 89.490694 
	-3.01294 89.490694 -38.802898 132.63997 -34.854317 63.669271 
	-3.01294 89.490694 -34.854317 63.669271 -38.802898 132.63997 
2.27 -32.669638 -91.656106 -3.0126493 88.278088 -3.0126493 88.278088 
	-3.0126493 88.278088 -39.055752 131.41345 -35.419473 61.442902 
	-3.0126493 88.278088 -35.419473 61.442902 -39.055752 131.41345 
2.28 -33.2017 -92.865227 -3.0123783 87.065575 -3.0123783 87.065575 
	-3.0123783 87.065575 -39.312252 130.19822 -36.013042 59.077022 
	-3.0123783 87.065575 -36.013042 59.077022 -39.312252 130.19822 
2.29 -33.762052 -94.073859 -3.0121267 85.853157 -3.0121267 85.853157 
	-3.0121267 85.853157 -39.572511 128.99483 -36.63763 56.544562 
	-3.0121267 85.853157 -36.63763 56.544562 -39.572511 128.99483 
2.3 -34.354094 -95.281926 -3.0118938 84.640834 -3.0118938 84.640834 
	-3.0118938 84.640834 -39.836644 127.80385 -37.296037 53.811411 
	-3.0118938 84.640834 -37.296037 53.811411 -39.836644 127.80385 
2.31 -34.981893 -96.489332 -3.0116793 83.428607 -3.0116793 83.428607 
	-3.0116793 83.428607 -40.104773 126.62594 -37.991178 50.83419 
	-3.0116793 83.428607 -37.991178 50.83419 -40.104773 126.62594 
2.32 -35.650371 -97.695951 -3.0114825 82.216478 -3.0114825 82.216478 
	-3.0114825 82.216478 -40.377025 125.46175 -38.725906 47.55726 
	-3.0114825 82.216478 -38.725906 47.55726 -40.377025 125.46175 
2.33 -36.365562 -98.901623 -3.0113029 81.004448 -3.0113029 81.004448 
	-3.0113029 81.004448 -40.653533 124.31202 -39.502668 43.908748 
	-3.0113029 81.004448 -39.502668 43.908748 -40.653533 124.31202 
2.34 -37.13498 -100.10613 -3.0111401 79.792517 -3.0111401 79.792517 
	-3.0111401 79.792517 -40.934434 123.17753 -40.322844 39.795437 
	-3.0111401 79.792517 -40.322844 39.795437 -40.934434 123.17753 
2.35 -37.968138 -101.30917 -3.0109934 78.580686 -3.0109934 78.580686 
	-3.0109934 78.580686 -41.219873 122.05914 -41.185551 35.096658 
	-3.0109934 78.580686 -41.185551 35.096658 -41.219873 122.05914 
2.36 -38.877336 -102.51033 -3.0108624 77.368956 -3.0108624 77.368956 
	-3.0108624 77.368956 -41.51 120.95775 -42.085512 29.658237 
	-3.0108624 77.368956 -42.085512 29.658237 -41.51 120.95775 
2.37 -39.878869 -103.70901 -3.0107466 76.157328 -3.0107466 76.157328 
	-3.0107466 76.157328 -41.804974 119.87436 -43.00946 23.289893 
	-3.0107466 76.157328 -43.00946 23.289893 -41.804974 119.87436 
2.38 -40.994961 -104.90426 -3.0106453 74.945802 -3.0106453 74.945802 
	-3.0106453 74.945802 -42.104959 118.81004 -43.93055 15.774673 
	-3.0106453 74.945802 -43.93055 15.774673 -42.104959 118.81004 
2.39 -42.257061 -106.09464 -3.0105582 73.734379 -3.0105582 73.734379 
	-3.0105582 73.734379 -42.410126 117.76596 -44.801198 6.9076364 
	-3.0105582 73.734379 -44.801198 6.9076364 -42.410126 117.76596 
2.4 -43.71177 -107.27764 -3.0104847 72.523058 -3.0104847 72.523058 
	-3.0104847 72.523058 -42.720654 116.74338 -45.54786 -3.4127126 
	-3.0104847 72.523058 -45.54786 -3.4127126 -42.720654 116.74338 
2.41 -45.432484 -108.44871 -3.0104243 71.31184 -3.0104243 71.31184 
	-3.0104243 71.31184 -43.036732 115.74367 -46.077124 -15.038289 
	-3.0104243 71.31184 -46.077124 -15.038289 -43.036732 115.74367 
2.42 -47.544924 -109.59841 -3.0103764 70.100726 -3.0103764 70.100726 
	-3.0103764 70.100726 -43.358552 114.76835 -46.303868 -27.452252 
	-3.0103764 70.100726 -46.303868 -27.452252 -43.358552 114.76835 
2.43 -50.292911 -110.7037 -3.0103406 68.889716 -3.0103406 68.889716 
	-3.0103406 68.889716 -43.68632 113.81905 -46.193941 -39.84216 
	-3.0103406 68.889716 -46.193941 -39.84216 -43.68632 113.81905 
2.44 -54.257278 -111.68935 -3.0103163 67.678808 -3.0103163 67.678808 
	-3.0103163 67.678808 -44.020245 112.89757 -45.785357 -51.405655 
	-3.0103163 67.678808 -45.785357 -51.405655 -44.020245 112.89757 
2.45 -61.573936 -112.08803 -3.010303 66.468004 -3.010303 66.468004 
	-3.010303 66.468004 -44.360546 112.00586 -45.16486 -61.647322 
	-3.010303 66.468004 -45.16486 -61.647322 -44.360546 112.00586 
2.46 -71.967712 60.551816 -3.0103002 65.257303 -3.0103002 65.257303 
	-3.0103002 65.257303 -44.707452 111.14608 -44.425279 -70.437328 
	-3.0103002 65.257303 -44.425279 -70.437328 -44.707452 111.14608 
2.47 -57.595491 63.163073 -3.0103075 64.046706 -3.0103075 64.046706 
	-3.0103075 64.046706 -45.061197 110.3206 -43.63871 -77.88656 
	-3.0103075 64.046706 -43.63871 -77.88656 -45.061197 110.3206 