! AWR Design Environment (19377) Sat Dec 27 02:21:50 2025
! Document = 'EM_Extract_4_way'
! nPorts: 5, nXvals: 401

# GHz S DB R 50
!Freq DBS11 AngS11 DBS12 AngS12 DBS13 AngS13 DBS14 AngS14 
!	DBS15 AngS15 
!	DBS21 AngS21 DBS22 AngS22 DBS23 AngS23 DBS24 AngS24 
!	DBS25 AngS25 
!	DBS31 AngS31 DBS32 AngS32 DBS33 AngS33 DBS34 AngS34 
!	DBS35 AngS35 
!	DBS41 AngS41 DBS42 AngS42 DBS43 AngS43 DBS44 AngS44 
!	DBS45 AngS45 
!	DBS51 AngS51 DBS52 AngS52 DBS53 AngS53 DBS54 AngS54 
!	DBS55 AngS55 
1 -6.895519 96.337258 -7.2107455 52.34032 -7.2114987 52.381508 -7.2126949 52.361809 
	-7.2094518 52.315864 
	-7.2107455 52.34032 -17.735139 -86.627936 -12.793029 167.30677 -18.578133 177.39439 
	-18.575863 177.36708 
	-7.2114987 52.381508 -12.793029 167.30677 -17.71285 -86.196714 -18.578382 177.44168 
	-18.574728 177.40535 
	-7.2126949 52.361809 -18.578133 177.39439 -18.578382 177.44168 -17.724443 -86.212407 
	-12.78935 167.27376 
	-7.2094518 52.315864 -18.575863 177.36708 -18.574728 177.40535 -12.78935 167.27376 
	-17.731667 -86.703809 
1.01 -6.8886682 94.038327 -7.1605264 49.417318 -7.1613172 49.457696 -7.1625832 49.437907 
	-7.1593296 49.392984 
	-7.1605264 49.417318 -17.846242 -90.242928 -12.772565 165.28599 -18.632935 172.86354 
	-18.631048 172.83909 
	-7.1613172 49.457696 -12.772565 165.28599 -17.824701 -89.799155 -18.63368 172.90634 
	-18.630122 172.87386 
	-7.1625832 49.437907 -18.632935 172.86354 -18.63368 172.90634 -17.834918 -89.799873 
	-12.769355 165.25909 
	-7.1593296 49.392984 -18.631048 172.83909 -18.630122 172.87386 -12.769355 165.25909 
	-17.841384 -90.310439 
1.02 -6.8891454 91.723922 -7.1148764 46.490132 -7.115702 46.529706 -7.1170394 46.509766 
	-7.113776 46.465812 
	-7.1148764 46.490132 -17.969318 -93.893511 -12.749083 163.2581 -18.696275 168.29292 
	-18.69479 168.27098 
	-7.115702 46.529706 -12.749083 163.2581 -17.948616 -93.436902 -18.697408 168.33115 
	-18.694 168.30235 
	-7.1170394 46.509766 -18.696275 168.29292 -18.697408 168.33115 -17.957802 -93.4231 
	-12.746346 163.23664 
	-7.113776 46.465812 -18.69479 168.27098 -18.694 168.30235 -12.746346 163.23664 
	-17.963294 -93.952797 
1.03 -6.8969628 89.396094 -7.0737426 43.559983 -7.0746009 43.598764 -7.0760107 43.578609 
	-7.0727375 43.53557 
	-7.0737426 43.559983 -18.104136 -97.579042 -12.722958 161.2273 -18.767967 163.68083 
	-18.766903 163.66105 
	-7.0746009 43.598764 -12.722958 161.2273 -18.084367 -97.109331 -18.769381 163.71453 
	-18.766174 163.68916 
	-7.0760107 43.578609 -18.767967 163.68083 -18.769381 163.71453 -18.092876 -97.081658 
	-12.720692 161.21052 
	-7.0727375 43.53557 -18.766903 163.66105 -18.766174 163.68916 -12.720692 161.21052 
	-18.097168 -97.630401 
1.04 -6.912118 87.056821 -7.037033 40.627844 -7.0379225 40.665842 -7.039405 40.645408 
	-7.0361211 40.603233 
	-7.037033 40.627844 -18.250419 -101.29886 -12.694663 159.19751 -18.847695 159.02532 
	-18.84706 159.00732 
	-7.0379225 40.665842 -12.694663 159.19751 -18.231678 -100.8158 -18.849282 159.05465 
	-18.846326 159.03243 
	-7.039405 40.645408 -18.847695 159.02532 -18.849282 159.05465 -18.239869 -100.77512 
	-12.692859 159.18457 
	-7.0361211 40.603233 -18.84706 159.00732 -18.846326 159.03243 -12.692859 159.18457 
	-18.242731 -101.34277 
1.05 -6.9345966 84.707977 -7.0046162 37.694434 -7.0055357 37.731664 -7.0070907 37.710886 
	-7.0037943 37.669522 
	-7.0046162 37.694434 -18.407846 -105.05229 -12.664757 157.17227 -18.934999 154.32436 
	-18.934798 154.30773 
	-7.0055357 37.731664 -12.664757 157.17227 -18.390232 -104.55564 -18.936656 154.34957 
	-18.933994 154.33014 
	-7.0070907 37.710886 -18.934999 154.32436 -18.936656 154.34957 -18.398464 -104.50305 
	-12.663398 157.16229 
	-7.0037943 37.669522 -18.934798 154.30773 -18.933994 154.33014 -12.663398 157.16229 
	-18.399658 -105.0894 
1.06 -6.964376 82.351318 -6.9763213 34.760226 -6.9772703 34.796704 -6.978897 34.775517 
	-6.9755853 34.734917 
	-6.9763213 34.760226 -18.576063 -108.83863 -12.633873 155.15458 -19.02928 149.57588 
	-19.029509 149.56022 
	-6.9772703 34.796704 -12.633873 155.15458 -18.559674 -108.32816 -19.030912 149.59736 
	-19.028582 149.58032 
	-6.978897 34.775517 -19.02928 149.57588 -19.030912 149.59736 -18.568301 -108.26498 
	-12.632935 155.14665 
	-6.9755853 34.734917 -19.029509 149.56022 -19.028582 149.58032 -12.632935 155.14665 
	-18.567585 -108.86977 
1.07 -7.0014293 79.988454 -6.9519399 31.825458 -6.9529186 31.861199 -6.9546153 31.839541 
	-6.951285 31.799659 
	-6.9519399 31.825458 -18.754686 -112.65716 -12.602702 153.1469 -19.129801 144.77799 
	-19.13045 144.7629 
	-6.9529186 31.861199 -12.602702 153.1469 -18.739625 -112.13263 -19.131324 144.79621 
	-19.129355 144.78112 
	-6.9546153 31.839541 -19.129801 144.77799 -19.131324 144.79621 -18.74899 -112.06044 
	-12.602154 153.1401 
	-6.951285 31.799659 -19.13045 144.7629 -19.129355 144.78112 -12.602154 153.1401 
	-18.746115 -112.68333 
1.08 -7.0457287 77.620839 -6.9312277 28.890147 -6.9322366 28.925166 -6.9340011 28.902975 
	-6.9306482 28.863771 
	-6.9312277 28.890147 -18.943317 -116.50711 -12.571979 151.15102 -19.235697 139.9291 
	-19.236746 139.91418 
	-6.9322366 28.925166 -12.571979 151.15102 -18.929686 -115.96829 -19.237041 139.94462 
	-19.235451 139.93099 
	-6.9340011 28.902975 -19.235697 139.9291 -19.237041 139.94462 -18.940116 -115.88889 
	-12.571782 151.14444 
	-6.9306482 28.863771 -19.236746 139.91418 -19.235451 139.93099 -12.571782 151.14444 
	-18.934829 -116.52949 
1.09 -7.0972492 75.249759 -6.9139075 25.954108 -6.9149478 25.98842 -6.9167772 25.965638 
	-6.9133971 25.927076 
	-6.9139075 25.954108 -19.141543 -120.3877 -12.542469 149.16809 -19.345987 135.02805 
	-19.34741 135.01293 
	-6.9149478 25.98842 -12.542469 149.16809 -19.129449 -119.83436 -19.347097 135.04151 
	-19.345894 135.02885 
	-6.9167772 25.965638 -19.345987 135.02805 -19.347097 135.04151 -19.141248 -119.74976 
	-12.542577 149.16084 
	-6.9133971 25.927076 -19.34741 135.01293 -19.345894 135.02885 -12.542577 149.16084 
	-19.133293 -120.40762 
1.1 -7.1559725 72.876317 -6.8996727 23.016982 -6.9007461 23.050602 -6.9026368 23.027173 
	-6.8992246 22.989222 
	-6.8996727 23.016982 -19.348954 -124.29813 -12.514944 147.19855 -19.459593 130.07434 
	-19.461355 130.05865 
	-6.9007461 23.050602 -12.514944 147.19855 -19.338505 -123.72999 -19.460432 130.08642 
	-19.459613 130.07421 
	-6.9026368 23.027173 -19.459593 130.07434 -19.460432 130.08642 -19.351951 -123.64243 
	-12.515307 147.18978 
	-6.8992246 22.989222 -19.461355 130.05865 -19.459613 130.07421 -12.515307 147.18978 
	-19.341066 -124.31701 
1.11 -7.2218904 70.501436 -6.8881911 20.078263 -6.8892995 20.111202 -6.8912476 20.087075 
	-6.8877982 20.049713 
	-6.8881911 20.078263 -19.565146 -128.23756 -12.490177 145.24217 -19.575363 125.06819 
	-19.577425 125.05163 
	-6.8892995 20.111202 -12.490177 145.24217 -19.556456 -127.65434 -19.575916 125.0796 
	-19.575466 125.06733 
	-6.8912476 20.087075 -19.575363 125.06819 -19.575916 125.0796 -19.571792 -127.56622 
	-12.490738 145.2311 
	-6.8877982 20.049713 -19.577425 125.05163 -19.575466 125.06733 -12.490738 145.2311 
	-19.557712 -128.25693 
1.12 -7.2950076 68.125851 -6.8791099 17.137327 -6.8802555 17.169595 -6.8822564 17.144725 
	-6.8787645 17.107933 
	-6.8791099 17.137327 -19.789732 -132.20515 -12.468921 143.29809 -19.692106 120.0107 
	-19.69442 119.993 
	-6.8802555 17.169595 -12.468921 143.29809 -19.782921 -131.60652 -19.692378 120.02217 
	-19.692266 120.00934 
	-6.8822564 17.144725 -19.692106 120.0107 -19.692378 120.02217 -19.800354 -131.52039 
	-12.469621 143.28397 
	-6.8787645 17.107933 -19.69442 119.993 -19.692266 120.00934 -12.469621 143.28397 
	-19.782809 -132.2266 
1.13 -7.3753451 65.750114 -6.8720601 14.193465 -6.8732455 14.22507 -6.8752943 14.199415 
	-6.8717547 14.163183 
	-6.8720601 14.193465 -20.022351 -136.20005 -12.451902 141.3648 -19.808623 114.90397 
	-19.811138 114.88491 
	-6.8732455 14.22507 -12.451902 141.3648 -20.017544 -135.58566 -19.808639 114.91616 
	-19.808826 114.90234 
	-6.8752943 14.199415 -19.808623 114.90397 -19.808639 114.91616 -20.037243 -135.50419 
	-12.452678 141.347 
	-6.8717547 14.163183 -19.811138 114.88491 -19.808826 114.90234 -12.452678 141.347 
	-20.015957 -136.22517 
1.14 -7.4629425 63.374599 -6.8666625 11.245918 -6.8678902 11.276864 -6.8699816 11.250389 
	-6.8663895 11.214712 
	-6.8666625 11.245918 -20.262675 -140.22146 -12.439805 139.44029 -19.923744 109.75108 
	-19.926407 109.73052 
	-6.8678902 11.276864 -12.439805 139.44029 -20.260009 -139.59089 -19.923551 109.76462 
	-19.923985 109.74942 
	-6.8699816 11.250389 -19.923744 109.75108 -19.923551 109.76462 -20.282095 -139.51681 
	-12.440592 139.41821 
	-6.8663895 11.214712 -19.926407 109.73052 -19.923985 109.74942 -12.440592 139.41821 
	-20.25679 -140.25179 
1.15 -7.5578608 60.999505 -6.8625329 8.2939031 -6.8638055 8.3241924 -6.8659342 8.2968672 
	-6.862285 8.2617471 
	-6.8625329 8.2939031 -20.510413 -144.2686 -12.433264 137.52201 -20.036376 104.55614 
	-20.039132 104.53398 
	-6.8638055 8.3241924 -12.433264 137.52201 -20.510035 -143.6214 -20.036038 104.57155 
	-20.036657 104.55465 
	-6.8659342 8.2968672 -20.036376 104.55614 -20.036038 104.57155 -20.534588 -143.55745 
	-12.433999 137.49518 
	-6.862285 8.2617471 -20.039132 104.53398 -20.036657 104.55465 -12.433999 137.49518 
	-20.504976 -144.30561 
1.16 -7.660184 58.624873 -6.8592884 5.3366477 -6.8606083 5.3662796 -6.8627688 5.3380814 
	-6.8590586 5.3035257 
	-6.8592884 5.3366477 -20.765319 -148.34077 -12.432857 135.60702 -20.145537 99.324191 
	-20.148333 99.300397 
	-6.8606083 5.3662796 -12.432857 135.60702 -20.767391 -147.67644 -20.145132 99.34189 
	-20.145869 99.323047 
	-6.8627688 5.3380814 -20.145537 99.324191 -20.145132 99.34189 -20.794447 -147.62532 
	-12.433477 135.57503 
	-6.8590586 5.3035257 -20.148333 99.300397 -20.145869 99.323047 -12.433477 135.57503 
	-20.760234 -148.38579 
1.17 -7.7700213 56.250592 -6.8565531 2.373416 -6.8579228 2.4023873 -6.8601094 2.3732991 
	-6.8563349 2.3393202 
	-6.8565531 2.373416 -21.027193 -152.43737 -12.439098 133.69201 -20.2504 94.061074 
	-20.253184 94.035688 
	-6.8579228 2.4023873 -12.439098 133.69201 -21.031895 -151.75535 -20.250015 94.081341 
	-20.2508 94.060421 
	-6.8601094 2.3732991 -20.2504 94.061074 -20.250015 94.081341 -21.061447 -151.71971 
	-12.43954 133.65454 
	-6.8563349 2.3393202 -20.253184 94.035688 -20.2508 94.060421 -12.43954 133.65454 
	-21.022327 -152.49154 
1.18 -7.8875088 53.876418 -6.8539645 -0.5964675 -6.8553858 -0.56816232 -6.8575933 -0.5981515 
	-6.853752 -0.63153665 
	-6.8539645 -0.5964675 -21.295883 -156.55794 -12.45243 131.7734 -20.35032 88.773257 
	-20.353047 88.746371 
	-6.8553858 -0.56816232 -12.45243 131.7734 -21.303414 -155.85764 -20.350051 88.796222 
	-20.350809 88.773185 
	-6.8575933 -0.5981515 -20.35032 88.773257 -20.350051 88.796222 -21.335418 -155.83996 
	-12.452636 131.73023 
	-6.853752 -0.63153665 -20.353047 88.746371 -20.350809 88.773185 -12.452636 131.73023 
	-21.291076 -156.62216 
1.19 -8.0128103 51.501988 -6.8511789 -3.573598 -6.8526535 -3.5459665 -6.8548766 -3.5768615 
	-6.8509671 -3.6096327 
	-6.8511789 -3.573598 -21.571284 -160.70217 -12.473222 129.84742 -20.444864 83.467581 
	-20.447495 83.439333 
	-6.8526535 -3.5459665 -12.473222 129.84742 -21.581868 -159.98294 -20.444804 83.493221 
	-20.445467 83.468124 
	-6.8548766 -3.5768615 -20.444864 83.467581 -20.444804 83.493221 -21.616247 -159.98557 
	-12.473137 129.79841 
	-6.8509671 -3.6096327 -20.447495 83.439333 -20.445467 83.468124 -12.473137 129.79841 
	-21.56635 -160.77706 
1.2 -8.1461194 49.126839 -6.8478776 -6.5584759 -6.8494067 -6.5315271 -6.8516405 -6.563327 
	-6.8476622 -6.5954619 
	-6.8478776 -6.5584759 -21.853334 -164.86994 -12.501767 127.91016 -20.533824 78.150985 
	-20.536328 78.12155 
	-6.8494067 -6.5315271 -12.501767 127.91016 -21.867225 -164.13112 -20.53406 78.179127 
	-20.534564 78.152121 
	-6.8516405 -6.563327 -20.533824 78.150985 -20.53406 78.179127 -21.903874 -164.15617 
	-12.50134 127.85525 
	-6.8476622 -6.5954619 -20.536328 78.12155 -20.534564 78.152121 -12.50134 127.85525 
	-21.848075 -164.9558 
1.21 -8.2876604 46.750423 -6.8437719 -9.5514971 -6.845356 -9.5252408 -6.8475961 -9.5579397 
	-6.8435494 -9.5894146 
	-6.8437719 -9.5514971 -22.142012 -169.06133 -12.538276 125.9577 -20.617218 72.830209 
	-20.619574 72.799783 
	-6.845356 -9.5252408 -12.538276 125.9577 -22.159494 -168.30225 -20.617828 72.860546 
	-20.618117 72.831862 
	-6.8475961 -9.5579397 -20.617218 72.830209 -20.617828 72.860546 -22.198292 -168.3516 
	-12.537462 125.89692 
	-6.8435494 -9.5894146 -20.619574 72.799783 -20.618117 72.831862 -12.537462 125.89692 
	-22.136222 -169.15813 
1.22 -8.4376892 44.372136 -6.8386078 -12.552949 -6.840247 -12.527395 -6.8424894 -12.560983 
	-6.838376 -12.591774 
	-6.8386078 -12.552949 -22.437329 -173.27663 -12.582878 123.98615 -20.695282 67.511508 
	-20.697478 67.480293 
	-6.840247 -12.527395 -12.582878 123.98615 -22.458721 -172.49662 -20.696328 67.543621 
	-20.69636 67.513553 
	-6.8424894 -12.560983 -20.695282 67.511508 -20.696328 67.543621 -22.499539 -172.57192 
	-12.581639 123.91961 
	-6.838376 -12.591774 -20.697478 67.480293 -20.69636 67.513553 -12.581639 123.91961 
	-22.430806 -173.38397 
1.23 -8.5964952 41.99133 -6.8321708 -15.563012 -6.8338645 -15.53817 -6.8361057 -15.572632 
	-6.8319281 -15.602717 
	-6.8321708 -15.563012 -22.739322 -177.51637 -12.635621 121.99176 -20.768452 62.200381 
	-20.770485 62.168571 
	-6.8338645 -15.53817 -12.635621 121.99176 -22.764984 -176.71478 -20.769977 62.233766 
	-20.76972 62.202654 
	-6.8361057 -15.572632 -20.768452 62.200381 -20.769977 62.233766 -22.807689 -176.81743 
	-12.633926 121.91962 
	-6.8319281 -15.602717 -20.770485 62.168571 -20.76972 62.202654 -12.633926 121.91962 
	-22.731877 -177.63348 
1.24 -8.7644023 39.60734 -6.8242883 -18.581765 -6.8260354 -18.557645 -6.8282726 -18.592962 
	-6.8240342 -18.622322 
	-6.8242883 -18.581765 -23.048042 178.21877 -12.69647 119.97098 -20.837331 56.901352 
	-20.839206 56.869119 
	-6.8260354 -18.557645 -12.69647 119.97098 -23.078374 179.04249 -20.839356 56.935456 
	-20.838793 56.903662 
	-6.8282726 -18.592962 -20.837331 56.901352 -20.839356 56.935456 -23.122847 178.91134 
	-12.694295 119.89348 
	-6.8240342 -18.622322 -20.839206 56.869119 -20.838793 56.903662 -12.694295 119.89348 
	-23.039513 178.093 
1.25 -8.9417706 37.219506 -6.8148329 -21.6092 -6.8166317 -21.585806 -6.8188626 -21.62196 
	-6.814568 -21.650579 
	-6.8148329 -21.6092 -23.363544 173.9279 -12.765307 117.92056 -20.90265 51.617806 
	-20.90438 51.585288 
	-6.8166317 -21.585806 -12.765307 117.92056 -23.398991 174.77423 -20.905177 51.652063 
	-20.904305 51.619949 
	-6.8188626 -21.62196 -20.90265 51.617806 -20.905177 51.652063 -23.445134 174.61363 
	-12.762639 117.838 
	-6.814568 -21.650579 -20.90438 51.585288 -20.904305 51.619949 -12.762639 117.838 
	-23.353805 173.79492 
1.26 -9.1289928 34.827688 -6.8039216 -24.648181 -6.8057729 -24.625525 -6.8079914 -24.662504 
	-6.8036426 -24.690346 
	-6.8039216 -24.648181 -23.685384 169.61302 -12.842852 115.84679 -20.963679 46.350676 
	-20.965277 46.318017 
	-6.8057729 -24.625525 -12.842852 115.84679 -23.726398 170.48225 -20.96671 46.384591 
	-20.965528 46.352515 
	-6.8079914 -24.662504 -20.963679 46.350676 -20.96671 46.384591 -23.77406 170.29121 
	-12.839676 115.75954 
	-6.8036426 -24.690346 -20.965277 46.318017 -20.965528 46.352515 -12.839676 115.75954 
	-23.674273 169.4744 
1.27 -9.3265142 32.431841 -6.7916182 -27.701714 -6.7935249 -27.679813 -6.7957209 -27.717608 
	-6.7913187 -27.744618 
	-6.7916182 -27.701714 -24.013184 165.27751 -12.929974 113.75572 -21.019672 41.103392 
	-21.021154 41.070745 
	-6.7935249 -27.679813 -12.929974 113.75572 -24.060207 166.16974 -21.023217 41.136514 
	-21.021725 41.104837 
	-6.7957209 -27.717608 -21.019672 41.103392 -21.023217 41.136514 -24.109177 165.94734 
	-12.926274 113.66425 
	-6.7913187 -27.744618 -21.021154 41.070745 -21.021725 41.104837 -12.926274 113.66425 
	-24.000491 165.135 
1.28 -9.5348368 30.031516 -6.7777783 -30.769758 -6.7797423 -30.748634 -6.7819061 -30.787227 
	-6.777453 -30.813349 
	-6.7777783 -30.769758 -24.347117 160.92242 -13.026652 111.64419 -21.071562 35.881259 
	-21.072951 35.848734 
	-6.7797423 -30.748634 -13.026652 111.64419 -24.40063 161.8377 -21.075617 35.913132 
	-21.073827 35.882197 
	-6.7819061 -30.787227 -21.071562 35.881259 -21.075617 35.913132 -24.450715 161.58331 
	-13.022427 111.54901 
	-6.777453 -30.813349 -21.072951 35.848734 -21.073827 35.882197 -13.022427 111.54901 
	-24.332675 160.77822 
1.29 -9.7545105 27.626346 -6.7622977 -33.852046 -6.76432 -33.831717 -6.7664424 -33.871081 
	-6.7619428 -33.896266 
	-6.7622977 -33.852046 -24.68739 156.54885 -13.132778 109.5093 -21.120452 30.68821 
	-21.121773 30.655864 
	-6.76432 -33.831717 -13.132778 109.5093 -24.74791 157.48713 -21.124995 30.718395 
	-21.122931 30.688512 
	-6.7664424 -33.871081 -21.120452 30.68821 -21.124995 30.718395 -24.798952 157.2004 
	-13.128038 109.41095 
	-6.7619428 -33.896266 -21.121773 30.655864 -21.122931 30.688512 -13.128038 109.41095 
	-24.671088 156.40556 
1.3 -9.9861377 25.216077 -6.7451159 -36.948097 -6.7471961 -36.928584 -6.7492691 -36.968682 
	-6.7447289 -36.992888 
	-6.7451159 -36.948097 -25.034234 152.15799 -13.248156 107.34851 -21.167555 25.526655 
	-21.168836 25.494489 
	-6.7471961 -36.928584 -13.248156 107.34851 -25.102321 153.1191 -21.17255 25.554755 
	-21.170245 25.526186 
	-6.7492691 -36.968682 -21.167555 25.526655 -21.17255 25.554755 -25.154208 152.79989 
	-13.242926 107.24754 
	-6.7447289 -36.992888 -21.168836 25.494489 -21.170245 25.526186 -13.242926 107.24754 
	-25.01603 152.01858 
1.31 -10.230377 22.800595 -6.7262183 -40.057249 -6.7283548 -40.038568 -6.7303714 -40.079358 
	-6.7257982 -40.10255 
	-6.7262183 -40.057249 -25.387897 147.75118 -13.372504 105.15973 -21.214145 20.397418 
	-21.215414 20.365378 
	-6.7283548 -40.038568 -13.372504 105.15973 -25.464156 148.73485 -21.219543 20.4231 
	-21.217039 20.396043 
	-6.7303714 -40.079358 -21.214145 20.397418 -21.219543 20.4231 -25.516829 148.38313 
	-13.366823 105.05668 
	-6.7257982 -40.10255 -21.215414 20.365378 -21.217039 20.396043 -13.366823 105.05668 
	-25.36783 147.6189 
1.32 -10.487951 20.379953 -6.7056369 -43.178685 -6.7078271 -43.160851 -6.7097814 -43.202284 
	-6.7051842 -43.224439 
	-6.7056369 -43.178685 -25.748636 143.33003 -13.505458 102.9414 -21.2615 15.299752 
	-21.262784 15.267726 
	-6.7078271 -43.160851 -13.505458 102.9414 -25.833719 144.3358 -21.267243 15.322759 
	-21.264586 15.297346 
	-6.7097814 -43.202284 -21.2615 15.299752 -21.267243 15.322759 -25.887185 143.9516 
	-13.49938 102.83682 
	-6.7051842 -43.224439 -21.262784 15.267726 -21.264586 15.297346 -13.49938 102.83682 
	-25.726839 143.20833 
1.33 -10.759651 17.9544 -6.6834503 -46.311474 -6.6856906 -46.294495 -6.6875782 -46.336519 
	-6.6829667 -46.357626 
	-6.6834503 -46.311474 -26.116715 138.8965 -13.64658 100.69261 -21.310852 10.231423 
	-21.312174 10.199249 
	-6.6856906 -46.294495 -13.64658 100.69261 -26.211323 139.92374 -21.316875 10.251591 
	-21.314115 10.227877 
	-6.6875782 -46.336519 -21.310852 10.231423 -21.316875 10.251591 -26.265659 139.50705 
	-13.640175 100.58701 
	-6.6829667 -46.357626 -21.312174 10.199249 -21.314115 10.227877 -13.640175 100.58701 
	-26.093418 138.78895 
1.34 -11.046348 15.524424 -6.6597826 -49.454608 -6.6620683 -49.438486 -6.6638864 -49.481044 
	-6.659271 -49.501107 
	-6.6597826 -49.454608 -26.492399 134.45309 -13.795364 98.413188 -21.363346 5.1888531 
	-21.364722 5.1563258 
	-6.6620683 -49.438486 -13.795364 98.413188 -26.597283 135.50098 -21.369578 5.2061154 
	-21.366766 5.1840819 
	-6.6638864 -49.481044 -21.363346 5.1888531 -21.369578 5.2061154 -26.652641 135.05159 
	-13.788715 98.307037 
	-6.659271 -49.501107 -21.364722 5.1563258 -21.366766 5.1840819 -13.788715 98.307037 
	-26.467939 134.36325 
1.35 -11.349003 13.09078 -6.6347998 -52.607037 -6.6371257 -52.591766 -6.6388728 -52.634804 
	-6.6342644 -52.653839 
	-6.6347998 -52.607037 -26.875954 130.00298 -13.951248 96.103777 -21.419994 0.16731107 
	-21.421436 0.13418965 
	-6.6371257 -52.591766 -13.951248 96.103777 -26.991922 131.07047 -21.426366 0.18170111 
	-21.423549 0.16125759 
	-6.6388728 -52.634804 -21.419994 0.16731107 -21.426366 0.18170111 -27.048526 130.5879 
	-13.944453 95.997483 
	-6.6342644 -52.653839 -21.421436 0.13418965 -21.423549 0.16125759 -13.944453 95.997483 
	-26.850779 129.9343 
1.36 -11.668679 10.654541 -6.6087069 -55.76771 -6.611067 -55.753277 -6.6127432 -55.796739 
	-6.6081524 -55.81478 
	-6.6087069 -55.76771 -27.267659 125.55027 -14.113628 93.765932 -21.481652 -4.8388702 
	-21.483161 -4.8728525 
	-6.611067 -55.753277 -14.113628 93.765932 -27.395568 126.63605 -21.488095 -4.8272195 
	-21.485317 -4.846231 
	-6.6127432 -55.796739 -21.481652 -4.8388702 -21.488095 -4.8272195 -27.453717 126.11942 
	-14.106796 93.659825 
	-6.6081524 -55.81478 -21.483161 -4.8728525 -21.485317 -4.846231 -14.106796 93.659825 
	-27.242323 125.50596 
1.37 -12.006561 8.2171473 -6.5817419 -58.935611 -6.5841298 -58.921995 -6.5857366 -58.965829 
	-6.5811738 -58.98292 
	-6.5817419 -58.935611 -27.667809 121.10016 -14.281872 91.402183 -21.548987 -9.8360498 
	-21.550559 -9.871175 
	-6.5841298 -58.921995 -14.281872 91.402183 -27.808571 122.20268 -21.555441 -9.8269115 
	-21.55274 -9.8447086 
	-6.5857366 -58.965829 -21.548987 -9.8360498 -21.555441 -9.8269115 -27.868631 121.65058 
	-14.275124 91.2965 
	-6.5811738 -58.98292 -21.550559 -9.871175 -21.55274 -9.8447086 -14.275124 91.2965 
	-27.642969 121.08307 
1.38 -12.363972 5.7804652 -6.5541701 -62.10979 -6.5565796 -62.096958 -6.5581195 -62.141117 
	-6.5535941 -62.157319 
	-6.5541701 -62.10979 -28.076733 116.65919 -14.455339 89.016078 -21.622469 -14.831023 
	-21.624089 -14.867577 
	-6.5565796 -62.096958 -14.455339 89.016078 -28.231315 117.7767 -21.628878 -14.824085 
	-21.626285 -14.840935 
	-6.5581195 -62.141117 -21.622469 -14.831023 -21.628878 -14.824085 -28.293711 117.18708 
	-14.448804 88.91095 
	-6.5535941 -62.157319 -21.624089 -14.867577 -21.626285 -14.840935 -14.448804 88.91095 
	-28.053142 116.67173 
1.39 -12.7424 3.3468634 -6.5262774 -65.289389 -6.5287021 -65.277301 -6.5301791 -65.321741 
	-6.5256995 -65.337126 
	-6.5262774 -65.289389 -28.494818 112.23557 -14.633399 86.612221 -21.702351 -19.830758 
	-21.703995 -19.86902 
	-6.5287021 -65.277301 -14.633399 86.612221 -28.66424 113.3661 -21.708674 -19.825633 
	-21.706208 -19.841844 
	-6.5301791 -65.321741 -21.702351 -19.830758 -21.708674 -19.825633 -28.729448 112.73618 
	-14.627213 86.507658 
	-6.5256995 -65.337126 -21.703995 -19.86902 -21.706208 -19.841844 -14.627213 86.507658 
	-28.473312 112.27959 
1.4 -13.14353 0.91930458 -6.4983628 -68.473662 -6.5007967 -68.46227 -6.5022154 -68.506956 
	-6.4977886 -68.521607 
	-6.4983628 -68.473662 -28.922536 107.8394 -14.815455 84.196259 -21.788673 -24.84213 
	-21.790309 -24.882359 
	-6.5007967 -68.46227 -14.815455 84.196259 -29.107872 108.98087 -21.794879 -24.838373 
	-21.792553 -24.854276 
	-6.5022154 -68.506956 -21.788673 -24.84213 -21.794879 -24.838373 -29.176405 108.30704 
	-14.809757 84.092146 
	-6.4977886 -68.521607 -21.790309 -24.882359 -21.792553 -24.854276 -14.809757 84.092146 
	-28.904015 107.91613 
1.41 -13.56928 -1.498537 -6.4707307 -71.661994 -6.4731685 -71.651241 -6.4745342 -71.696145 
	-6.4701657 -71.710153 
	-6.4707307 -71.661994 -29.360473 103.48302 -15.000963 81.774855 -21.881258 -29.871657 
	-21.882847 -29.914082 
	-6.4731685 -71.651241 -15.000963 81.774855 -29.562857 104.6333 -21.887334 -29.868778 
	-21.885146 -29.884719 
	-6.4745342 -71.696145 -21.881258 -29.871657 -21.887334 -29.868778 -29.635256 103.91112 
	-14.995891 81.670945 
	-6.4701657 -71.710153 -21.882847 -29.914082 -21.885146 -29.884719 -14.995891 81.670945 
	-29.345885 103.59304 
1.42 -14.021853 -3.9021215 -6.4436833 -74.853906 -6.4461202 -74.843727 -6.4474388 -74.88883 
	-6.4431321 -74.902295 
	-6.4436833 -74.853906 -29.809369 99.181325 -15.189453 79.355621 -21.979728 -34.925236 
	-21.981221 -34.970044 
	-6.4461202 -74.843727 -15.189453 79.355621 -30.03 100.33842 -21.985675 -34.922725 
	-21.983615 -34.939049 
	-6.4474388 -74.88883 -21.979728 -34.925236 -21.985675 -34.922725 -30.106823 99.562555 
	-15.185142 79.251533 
	-6.4431321 -74.902295 -21.981221 -34.970044 -21.983615 -34.939049 -15.185142 79.251533 
	-29.799689 99.324563 
1.43 -14.503797 -6.2858394 -6.4175129 -78.049057 -6.4199451 -78.039382 -6.4212225 -78.084672 
	-6.4169793 -78.097697 
	-6.4175129 -78.049057 -30.270159 94.952168 -15.380551 76.947009 -22.083516 -40.007903 
	-22.084858 -40.055229 
	-6.4199451 -78.039382 -15.380551 76.947009 -30.510308 96.114404 -22.089352 -40.005248 
	-22.087398 -40.022279 
	-6.4212225 -78.084672 -22.083516 -40.007903 -22.089352 -40.005248 -30.592125 95.278633 
	-15.377127 76.842238 
	-6.4169793 -78.097697 -22.084858 -40.055229 -22.087398 -40.022279 -15.377127 76.842238 
	-30.266363 95.127968 
1.44 -15.018084 -8.6427346 -6.3924946 -81.247243 -6.3949195 -81.237996 -6.3961617 -81.283469 
	-6.3919817 -81.296162 
	-6.3924946 -81.247243 -30.744005 90.816762 -15.573987 74.558182 -22.191889 -45.123593 
	-22.193022 -45.17351 
	-6.3949195 -81.237996 -15.573987 74.558182 -31.005033 91.983089 -22.197651 -45.120306 
	-22.19577 -45.138336 
	-6.3961617 -81.283469 -22.191889 -45.123593 -22.197651 -45.120306 -31.092427 91.08036 
	-15.571565 74.452109 
	-6.3919817 -81.296162 -22.193022 -45.17351 -22.19577 -45.138336 -15.571565 74.452109 
	-30.74705 91.024001 
1.45 -15.568214 -10.964121 -6.3688802 -84.448382 -6.3712962 -84.439483 -6.3725087 -84.485144 
	-6.3683896 -84.497613 
	-6.3688802 -84.448382 -31.232331 86.800228 -15.76961 72.19885 -22.303985 -50.274943 
	-22.304847 -50.327455 
	-6.3712962 -84.439483 -15.76961 72.19885 -31.515708 87.970591 -22.309728 -50.270584 
	-22.307877 -50.289856 
	-6.3725087 -84.485144 -22.303985 -50.274943 -22.309728 -50.270584 -31.609288 86.993099 
	-15.768292 72.090757 
	-6.3683896 -84.497613 -22.304847 -50.327455 -22.307877 -50.289856 -15.768292 72.090757 
	-31.24313 87.037503 
1.46 -16.15835 -13.239042 -6.3468916 -87.652505 -6.3492985 -87.643871 -6.3504862 -87.689733 
	-6.3464239 -87.702081 
	-6.3468916 -87.652505 -31.736837 82.932248 -15.967394 69.879086 -22.418846 -55.463122 
	-22.419374 -55.518159 
	-6.3492985 -87.643871 -15.967394 69.879086 -32.044174 84.108098 -22.42464 -55.457326 
	-22.422768 -55.478019 
	-6.3504862 -87.689733 -22.418846 -55.463122 -22.42464 -55.457326 -32.1446 83.0474 
	-15.967262 69.768177 
	-6.3464239 -87.702081 -22.419374 -55.518159 -22.422768 -55.478019 -15.967262 69.768177 
	-31.756248 83.19814 
1.47 -16.793496 -15.45349 -6.3267163 -90.85973 -6.3291151 -90.851279 -6.3302825 -90.897359 
	-6.3262709 -90.909687 
	-6.3267163 -90.85973 -32.259498 79.247935 -16.167432 67.609131 -22.53547 -60.687724 
	-22.535603 -60.745141 
	-6.3291151 -90.851279 -16.167432 67.609131 -32.592579 80.4329 -22.541397 -60.680223 
	-22.539448 -60.702442 
	-6.3302825 -90.897359 -22.53547 -60.687724 -22.541397 -60.680223 -32.700607 79.280075 
	-16.16855 67.494556 
	-6.3262709 -90.909687 -22.535603 -60.745141 -22.539448 -60.702442 -16.16855 67.494556 
	-32.288302 79.541354 
1.48 -17.479739 -17.589261 -6.3085033 -94.070244 -6.3108966 -94.061893 -6.3120468 -94.108215 
	-6.3080783 -94.12062 
	-6.3085033 -94.070244 -32.802518 75.788985 -16.369927 65.39919 -22.652855 -65.94672 
	-22.652536 -66.006297 
	-6.3108966 -94.061893 -16.369927 65.39919 -33.163334 76.989778 -22.65901 -65.937365 
	-22.656925 -65.961128 
	-6.3120468 -94.108215 -22.652855 -65.94672 -22.65901 -65.937365 -33.279888 75.735641 
	-16.372339 65.280077 
	-6.3080783 -94.12062 -22.652536 -66.006297 -22.656925 -65.961128 -16.372339 65.280077 
	-32.841407 76.109607 
1.49 -18.224579 -19.622209 -6.2923603 -97.284278 -6.2947516 -97.275945 -6.295887 -97.322537 
	-6.2919525 -97.335105 
	-6.2923603 -97.284278 -33.368217 72.60523 -16.575184 63.259246 -22.770061 -71.23649 
	-22.76924 -71.297941 
	-6.2947516 -97.275945 -16.575184 63.259246 -33.759004 73.832874 -22.776545 -71.225271 
	-22.774263 -71.250505 
	-6.295887 -97.322537 -22.770061 -71.23649 -22.776545 -71.225271 -33.885279 72.468285 
	-16.578912 63.134722 
	-6.2919525 -97.335105 -22.76924 -71.297941 -22.774263 -71.250505 -16.578912 63.134722 
	-33.417785 72.95404 
1.5 -19.037387 -21.519549 -6.2783518 -100.50207 -6.2807461 -100.49368 -6.2818678 -100.54057 
	-6.277957 -100.55338 
	-6.2783518 -100.50207 -33.958825 69.756701 -16.783581 61.198868 -22.88626 -76.551949 
	-22.884895 -76.614928 
	-6.2807461 -100.49368 -16.783581 61.198868 -34.382067 71.028201 -22.893175 -76.539003 
	-22.890639 -76.565544 
	-6.2818678 -100.54057 -22.88626 -76.551949 -22.893175 -76.539003 -34.519671 69.544545 
	-16.788626 61.068094 
	-6.277957 -100.55338 -22.884895 -76.614928 -22.890639 -76.565544 -16.788626 61.068094 
	-34.019546 70.136649 
1.51 -19.930062 -23.236349 -6.2662293 -103.72233 -6.2686288 -103.7138 -6.2697417 -103.76099 
	-6.2658459 -103.77414 
	-6.2662293 -103.72233 -34.576935 67.301138 -16.99578 59.20924 -23.002325 -81.893508 
	-23.000389 -81.957654 
	-6.2686288 -103.7138 -16.99578 59.20924 -35.035585 68.64163 -23.009751 -81.879153 
	-23.006914 -81.90673 
	-6.2697417 -103.76099 -23.002325 -81.893508 -23.009751 -81.879153 -35.187154 67.029777 
	-17.002132 59.071407 
	-6.2658459 -103.77414 -23.000389 -81.957654 -23.006914 -81.90673 -17.002132 59.071407 
	-34.649657 67.716839 
1.52 -20.917933 -24.707824 -6.2557603 -106.94335 -6.2581646 -106.93458 -6.2592786 -106.98206 
	-6.2553899 -106.99567 
	-6.2557603 -106.94335 -35.223916 65.307164 -17.212118 57.279156 -23.118983 -87.264579 
	-23.116462 -87.329534 
	-6.2581646 -106.93458 -17.212118 57.279156 -35.72134 66.75246 -23.126972 -87.24926 
	-23.123796 -87.277512 
	-6.2592786 -106.98206 -23.118983 -87.264579 -23.126972 -87.24926 -35.890855 65.002942 
	-17.219757 57.133492 
	-6.2553899 -106.99567 -23.116462 -87.329534 -23.123796 -87.277512 -17.219757 57.133492 
	-35.309931 65.764931 
1.53 -22.021104 -25.835832 -6.246981 -110.1648 -6.2493914 -110.15572 -6.250516 -110.20347 
	-6.2466243 -110.21765 
	-6.246981 -110.1648 -35.89822 63.875054 -17.432513 55.414029 -23.235318 -92.662561 