! AWR Design Environment (19377) Sat Dec 27 02:53:11 2025
! Document = 'Full'
! nPorts: 5, nXvals: 401

# GHz S DB R 50
!Freq DBS11 AngS11 DBS12 AngS12 DBS13 AngS13 DBS14 AngS14 
!	DBS15 AngS15 
!	DBS21 AngS21 DBS22 AngS22 DBS23 AngS23 DBS24 AngS24 
!	DBS25 AngS25 
!	DBS31 AngS31 DBS32 AngS32 DBS33 AngS33 DBS34 AngS34 
!	DBS35 AngS35 
!	DBS41 AngS41 DBS42 AngS42 DBS43 AngS43 DBS44 AngS44 
!	DBS45 AngS45 
!	DBS51 AngS51 DBS52 AngS52 DBS53 AngS53 DBS54 AngS54 
!	DBS55 AngS55 
1 -3.1615366 90.037754 -18.181606 -168.92246 -18.181606 -168.92246 -18.181606 -168.92246 
	-18.181606 -168.92246 
	-18.207272 -168.89748 -2.7425694 -175.03974 -33.781919 47.431237 -39.136693 71.448556 
	-39.136693 71.448556 
	-18.207272 -168.89748 -33.781919 47.431237 -2.7425694 -175.03974 -39.136693 71.448556 
	-39.136693 71.448556 
	-18.207272 -168.89748 -39.136693 71.448556 -39.136693 71.448556 -2.7425694 -175.03974 
	-33.781919 47.431237 
	-18.207272 -168.89748 -39.136693 71.448556 -39.136693 71.448556 -33.781919 47.431237 
	-2.7425694 -175.03974 
1.01 -3.4150041 85.041967 -17.714791 -174.52566 -17.714791 -174.52566 -17.714791 -174.52566 
	-17.714791 -174.52566 
	-17.737068 -174.50479 -2.873854 -177.31717 -33.200434 40.713117 -38.604833 60.327286 
	-38.604833 60.327286 
	-17.737068 -174.50479 -33.200434 40.713117 -2.873854 -177.31717 -38.604833 60.327286 
	-38.604833 60.327286 
	-17.737068 -174.50479 -38.604833 60.327286 -38.604833 60.327286 -2.873854 -177.31717 
	-33.200434 40.713117 
	-17.737068 -174.50479 -38.604833 60.327286 -38.604833 60.327286 -33.200434 40.713117 
	-2.873854 -177.31717 
1.02 -3.7188081 79.94064 -17.233854 179.66936 -17.233854 179.66936 -17.233854 179.66936 
	-17.233854 179.66936 
	-17.258024 179.69112 -3.0142774 -179.6026 -32.589892 33.735205 -38.053932 49.114534 
	-38.053932 49.114534 
	-17.258024 179.69112 -32.589892 33.735205 -3.0142774 -179.6026 -38.053932 49.114534 
	-38.053932 49.114534 
	-17.258024 179.69112 -38.053932 49.114534 -38.053932 49.114534 -3.0142774 -179.6026 
	-32.589892 33.735205 
	-17.258024 179.69112 -38.053932 49.114534 -38.053932 49.114534 -32.589892 33.735205 
	-3.0142774 -179.6026 
1.03 -4.0821817 74.732067 -16.75113 173.66505 -16.75113 173.66505 -16.75113 173.66505 
	-16.75113 173.66505 
	-16.778437 173.69739 -3.1680292 178.1158 -31.971062 26.513848 -37.49842 37.81463 
	-37.49842 37.81463 
	-16.778437 173.69739 -31.971062 26.513848 -3.1680292 178.1158 -37.49842 37.81463 
	-37.49842 37.81463 
	-16.778437 173.69739 -37.49842 37.81463 -37.49842 37.81463 -3.1680292 178.1158 
	-31.971062 26.513848 
	-16.778437 173.69739 -37.49842 37.81463 -37.49842 37.81463 -31.971062 26.513848 
	-3.1680292 178.1158 
1.04 -4.5202342 69.420772 -16.267287 167.44371 -16.267287 167.44371 -16.267287 167.44371 
	-16.267287 167.44371 
	-16.294077 167.50638 -3.3339073 175.85255 -31.3405 19.047574 -36.929411 26.400749 
	-36.929411 26.400749 
	-16.294077 167.50638 -31.3405 19.047574 -3.3339073 175.85255 -36.929411 26.400749 
	-36.929411 26.400749 
	-16.294077 167.50638 -36.929411 26.400749 -36.929411 26.400749 -3.3339073 175.85255 
	-31.3405 19.047574 
	-16.294077 167.50638 -36.929411 26.400749 -36.929411 26.400749 -31.3405 19.047574 
	-3.3339073 175.85255 
1.05 -5.0459176 64.043332 -15.789956 160.99286 -15.789956 160.99286 -15.789956 160.99286 
	-15.789956 160.99286 
	-15.810971 161.0807 -3.5126522 173.61785 -30.707501 11.295572 -36.353093 14.809774 
	-36.353093 14.809774 
	-15.810971 161.0807 -30.707501 11.295572 -3.5126522 173.61785 -36.353093 14.809774 
	-36.353093 14.809774 
	-15.810971 161.0807 -36.353093 14.809774 -36.353093 14.809774 -3.5126522 173.61785 
	-30.707501 11.295572 
	-15.810971 161.0807 -36.353093 14.809774 -36.353093 14.809774 -30.707501 11.295572 
	-3.5126522 173.61785 
1.06 -5.6759295 58.635846 -15.31969 154.31708 -15.31969 154.31708 -15.31969 154.31708 
	-15.31969 154.31708 
	-15.337764 154.40687 -3.7005549 171.43669 -30.077738 3.2523795 -35.772485 3.0111388 
	-35.772485 3.0111388 
	-15.337764 154.40687 -30.077738 3.2523795 -3.7005549 171.43669 -35.772485 3.0111388 
	-35.772485 3.0111388 
	-15.337764 154.40687 -35.772485 3.0111388 -35.772485 3.0111388 -3.7005549 171.43669 
	-30.077738 3.2523795 
	-15.337764 154.40687 -35.772485 3.0111388 -35.772485 3.0111388 -30.077738 3.2523795 
	-3.7005549 171.43669 
1.07 -6.4326262 53.249298 -14.868979 147.41068 -14.868979 147.41068 -14.868979 147.41068 
	-14.868979 147.41068 
	-14.882561 147.50209 -3.9013306 169.3152 -29.46828 -5.0691769 -35.202811 -9.0092683 
	-35.202811 -9.0092683 
	-14.882561 147.50209 -29.46828 -5.0691769 -3.9013306 169.3152 -35.202811 -9.0092683 
	-35.202811 -9.0092683 
	-14.882561 147.50209 -35.202811 -9.0092683 -35.202811 -9.0092683 -3.9013306 169.3152 
	-29.46828 -5.0691769 
	-14.882561 147.50209 -35.202811 -9.0092683 -35.202811 -9.0092683 -29.46828 -5.0691769 
	-3.9013306 169.3152 
1.08 -7.3441134 47.998042 -14.437813 140.30325 -14.437813 140.30325 -14.437813 140.30325 
	-14.437813 140.30325 
	-14.449436 140.38535 -4.1080862 167.2651 -28.877275 -13.622577 -34.642105 -21.232907 
	-34.642105 -21.232907 
	-14.449436 140.38535 -28.877275 -13.622577 -4.1080862 167.2651 -34.642105 -21.232907 
	-34.642105 -21.232907 
	-14.449436 140.38535 -34.642105 -21.232907 -34.642105 -21.232907 -4.1080862 167.2651 
	-28.877275 -13.622577 
	-14.449436 140.38535 -34.642105 -21.232907 -34.642105 -21.232907 -28.877275 -13.622577 
	-4.1080862 167.2651 
1.09 -8.4455114 43.057773 -14.036331 132.99159 -14.036331 132.99159 -14.036331 132.99159 
	-14.036331 132.99159 
	-14.046035 133.08623 -4.3234133 165.28905 -28.316591 -22.396577 -34.102929 -33.673565 
	-34.102929 -33.673565 
	-14.046035 133.08623 -28.316591 -22.396577 -4.3234133 165.28905 -34.102929 -33.673565 
	-34.102929 -33.673565 
	-14.046035 133.08623 -34.102929 -33.673565 -34.102929 -33.673565 -4.3234133 165.28905 
	-28.316591 -22.396577 
	-14.046035 133.08623 -34.102929 -33.673565 -34.102929 -33.673565 -28.316591 -22.396577 
	-4.3234133 165.28905 
1.1 -9.7837076 38.734714 -13.668795 125.51912 -13.668795 125.51912 -13.668795 125.51912 
	-13.668795 125.51912 
	-13.675874 125.60811 -4.5460467 163.39027 -27.787845 -31.366618 -33.588569 -46.330955 
	-33.588569 -46.330955 
	-13.675874 125.60811 -27.787845 -31.366618 -4.5460467 163.39027 -33.588569 -46.330955 
	-33.588569 -46.330955 
	-13.675874 125.60811 -33.588569 -46.330955 -33.588569 -46.330955 -4.5460467 163.39027 
	-27.787845 -31.366618 
	-13.675874 125.60811 -33.588569 -46.330955 -33.588569 -46.330955 -27.787845 -31.366618 
	-4.5460467 163.39027 
1.11 -11.411423 35.500352 -13.338656 117.91585 -13.338656 117.91585 -13.338656 117.91585 
	-13.338656 117.91585 
	-13.343307 118.00266 -4.7706232 161.58518 -27.294692 -40.501542 -33.104833 -59.186048 
	-33.104833 -59.186048 
	-13.343307 118.00266 -27.294692 -40.501542 -4.7706232 161.58518 -33.104833 -59.186048 
	-33.104833 -59.186048 
	-13.343307 118.00266 -33.104833 -59.186048 -33.104833 -59.186048 -4.7706232 161.58518 
	-27.294692 -40.501542 
	-13.343307 118.00266 -33.104833 -59.186048 -33.104833 -59.186048 -27.294692 -40.501542 
	-4.7706232 161.58518 
1.12 -13.403037 34.315369 -13.051825 110.23378 -13.051825 110.23378 -13.051825 110.23378 
	-13.051825 110.23378 
	-13.055338 110.31387 -4.9949439 159.86382 -26.846085 -49.742584 -32.663557 -72.197721 
	-32.663557 -72.197721 
	-13.055338 110.31387 -26.846085 -49.742584 -4.9949439 159.86382 -32.663557 -72.197721 
	-32.663557 -72.197721 
	-13.055338 110.31387 -32.663557 -72.197721 -32.663557 -72.197721 -4.9949439 159.86382 
	-26.846085 -49.742584 
	-13.055338 110.31387 -32.663557 -72.197721 -32.663557 -72.197721 -26.846085 -49.742584 
	-4.9949439 159.86382 
1.13 -15.806039 37.052281 -12.808375 102.53999 -12.808375 102.53999 -12.808375 102.53999 
	-12.808375 102.53999 
	-12.814402 102.60473 -5.2202026 158.22144 -26.443107 -59.016488 -32.268996 -85.298304 
	-32.268996 -85.298304 
	-12.814402 102.60473 -26.443107 -59.016488 -5.2202026 158.22144 -32.268996 -85.298304 
	-32.268996 -85.298304 
	-12.814402 102.60473 -32.268996 -85.298304 -32.268996 -85.298304 -5.2202026 158.22144 
	-26.443107 -59.016488 
	-12.814402 102.60473 -32.268996 -85.298304 -32.268996 -85.298304 -26.443107 -59.016488 
	-5.2202026 158.22144 
1.14 -18.443438 47.504773 -12.609884 94.863415 -12.609884 94.863415 -12.609884 94.863415 
	-12.609884 94.863415 
	-12.61224 94.935184 -5.4426969 156.65097 -26.078677 -68.284761 -31.91764 -98.453686 
	-31.91764 -98.453686 
	-12.61224 94.935184 -26.078677 -68.284761 -5.4426969 156.65097 -31.91764 -98.453686 
	-31.91764 -98.453686 
	-12.61224 94.935184 -31.91764 -98.453686 -31.91764 -98.453686 -5.4426969 156.65097 
	-26.078677 -68.284761 
	-12.61224 94.935184 -31.91764 -98.453686 -31.91764 -98.453686 -26.078677 -68.284761 
	-5.4426969 156.65097 
1.15 -20.180058 69.288339 -12.447217 87.283674 -12.447217 87.283674 -12.447217 87.283674 
	-12.447217 87.283674 
	-12.452259 87.340284 -5.6617158 155.14253 -25.748463 -77.495507 -31.609196 -111.60409 
	-31.609196 -111.60409 
	-12.452259 87.340284 -25.748463 -77.495507 -5.6617158 155.14253 -31.609196 -111.60409 
	-31.609196 -111.60409 
	-12.452259 87.340284 -31.609196 -111.60409 -31.609196 -111.60409 -5.6617158 155.14253 
	-25.748463 -77.495507 
	-12.452259 87.340284 -31.609196 -111.60409 -31.609196 -111.60409 -25.748463 -77.495507 
	-5.6617158 155.14253 
1.16 -19.46407 93.237167 -12.320423 79.817983 -12.320423 79.817983 -12.320423 79.817983 
	-12.320423 79.817983 
	-12.323601 79.870175 -5.8781484 153.68747 -25.445875 -86.637833 -31.340391 -124.7234 
	-31.340391 -124.7234 
	-12.323601 79.870175 -25.445875 -86.637833 -5.8781484 153.68747 -31.340391 -124.7234 
	-31.340391 -124.7234 
	-12.323601 79.870175 -31.340391 -124.7234 -31.340391 -124.7234 -5.8781484 153.68747 
	-25.445875 -86.637833 
	-12.323601 79.870175 -31.340391 -124.7234 -31.340391 -124.7234 -25.445875 -86.637833 
	-5.8781484 153.68747 
1.17 -17.376725 106.75763 -12.221696 72.487424 -12.221696 72.487424 -12.221696 72.487424 
	-12.221696 72.487424 
	-12.226781 72.538533 -6.0881845 152.28899 -25.169841 -95.716617 -31.112311 -137.79864 
	-31.112311 -137.79864 
	-12.226781 72.538533 -25.169841 -95.716617 -6.0881845 152.28899 -31.112311 -137.79864 
	-31.112311 -137.79864 
	-12.226781 72.538533 -31.112311 -137.79864 -31.112311 -137.79864 -6.0881845 152.28899 
	-25.169841 -95.716617 
	-12.226781 72.538533 -31.112311 -137.79864 -31.112311 -137.79864 -25.169841 -95.716617 
	-6.0881845 152.28899 
1.18 -15.346219 111.61368 -12.146956 65.326806 -12.146956 65.326806 -12.146956 65.326806 
	-12.146956 65.326806 
	-12.151056 65.376168 -6.2949802 150.93211 -24.912557 -104.70414 -30.918886 -150.77615 
	-30.918886 -150.77615 
	-12.151056 65.376168 -24.912557 -104.70414 -6.2949802 150.93211 -30.918886 -150.77615 
	-30.918886 -150.77615 
	-12.151056 65.376168 -30.918886 -150.77615 -30.918886 -150.77615 -6.2949802 150.93211 
	-24.912557 -104.70414 
	-12.151056 65.376168 -30.918886 -150.77615 -30.918886 -150.77615 -24.912557 -104.70414 
	-6.2949802 150.93211 
1.19 -13.690356 111.96573 -12.09026 58.336535 -12.09026 58.336535 -12.09026 58.336535 
	-12.09026 58.336535 
	-12.096517 58.3926 -6.4979101 149.60309 -24.674492 -113.61211 -30.761789 -163.64448 
	-30.761789 -163.64448 
	-12.096517 58.3926 -24.674492 -113.61211 -6.4979101 149.60309 -30.761789 -163.64448 
	-30.761789 -163.64448 
	-12.096517 58.3926 -30.761789 -163.64448 -30.761789 -163.64448 -6.4979101 149.60309 
	-24.674492 -113.61211 
	-12.096517 58.3926 -30.761789 -163.64448 -30.761789 -163.64448 -24.674492 -113.61211 
	-6.4979101 149.60309 
1.2 -12.389791 110.04163 -12.048349 51.521592 -12.048349 51.521592 -12.048349 51.521592 
	-12.048349 51.521592 
	-12.05331 51.582162 -6.6994626 148.31204 -24.451118 -122.46051 -30.635989 -176.39175 
	-30.635989 -176.39175 
	-12.05331 51.582162 -24.451118 -122.46051 -6.6994626 148.31204 -30.635989 -176.39175 
	-30.635989 -176.39175 
	-12.05331 51.582162 -30.635989 -176.39175 -30.635989 -176.39175 -6.6994626 148.31204 
	-24.451118 -122.46051 
	-12.05331 51.582162 -30.635989 -176.39175 -30.635989 -176.39175 -24.451118 -122.46051 
	-6.6994626 148.31204 
1.21 -11.367144 106.94876 -12.012717 44.876742 -12.012717 44.876742 -12.012717 44.876742 
	-12.012717 44.876742 
	-12.018908 44.931746 -6.8944285 147.07714 -24.239712 -131.26025 -30.536498 170.99263 
	-30.536498 170.99263 
	-12.018908 44.931746 -24.239712 -131.26025 -6.8944285 147.07714 -30.536498 170.99263 
	-30.536498 170.99263 
	-12.018908 44.931746 -30.536498 170.99263 -30.536498 170.99263 -6.8944285 147.07714 
	-24.239712 -131.26025 
	-12.018908 44.931746 -30.536498 170.99263 -30.536498 170.99263 -24.239712 -131.26025 
	-6.8944285 147.07714 
1.22 -10.561954 103.1785 -11.982577 38.377874 -11.982577 38.377874 -11.982577 38.377874 
	-11.982577 38.377874 
	-11.988498 38.435586 -7.0846766 145.88159 -24.041524 -140.03998 -30.462723 158.50415 
	-30.462723 158.50415 
	-11.988498 38.435586 -24.041524 -140.03998 -7.0846766 145.88159 -30.462723 158.50415 
	-30.462723 158.50415 
	-11.988498 38.435586 -30.462723 158.50415 -30.462723 158.50415 -7.0846766 145.88159 
	-24.041524 -140.03998 
	-11.988498 38.435586 -30.462723 158.50415 -30.462723 158.50415 -24.041524 -140.03998 
	-7.0846766 145.88159 
1.23 -9.930288 99.014135 -11.95287 32.038376 -11.95287 32.038376 -11.95287 32.038376 
	-11.95287 32.038376 
	-11.959216 32.098614 -7.2673126 144.71642 -23.855908 -148.76792 -30.410714 146.19442 
	-30.410714 146.19442 
	-11.959216 32.098614 -23.855908 -148.76792 -7.2673126 144.71642 -30.410714 146.19442 
	-30.410714 146.19442 
	-11.959216 32.098614 -30.410714 146.19442 -30.410714 146.19442 -7.2673126 144.71642 
	-23.855908 -148.76792 
	-11.959216 32.098614 -30.410714 146.19442 -30.410714 146.19442 -23.855908 -148.76792 
	-7.2673126 144.71642 
1.24 -9.4386791 94.623664 -11.921333 25.830047 -11.921333 25.830047 -11.921333 25.830047 
	-11.921333 25.830047 
	-11.925945 25.888221 -7.4451319 143.5689 -23.681952 -157.47972 -30.375497 134.03952 
	-30.375497 134.03952 
	-11.925945 25.888221 -23.681952 -157.47972 -7.4451319 143.5689 -30.375497 134.03952 
	-30.375497 134.03952 
	-11.925945 25.888221 -30.375497 134.03952 -30.375497 134.03952 -7.4451319 143.5689 
	-23.681952 -157.47972 
	-11.925945 25.888221 -30.375497 134.03952 -30.375497 134.03952 -23.681952 -157.47972 
	-7.4451319 143.5689 
1.25 -9.0633513 90.094544 -11.885082 19.745189 -11.885082 19.745189 -11.885082 19.745189 
	-11.885082 19.745189 
	-11.889444 19.798431 -7.6155841 142.4335 -23.522779 -166.1612 -30.356185 122.06053 
	-30.356185 122.06053 
	-11.889444 19.798431 -23.522779 -166.1612 -7.6155841 142.4335 -30.356185 122.06053 
	-30.356185 122.06053 
	-11.889444 19.798431 -30.356185 122.06053 -30.356185 122.06053 -7.6155841 142.4335 
	-23.522779 -166.1612 
	-11.889444 19.798431 -30.356185 122.06053 -30.356185 122.06053 -23.522779 -166.1612 
	-7.6155841 142.4335 
1.26 -8.7847559 85.48976 -11.841781 13.74723 -11.841781 13.74723 -11.841781 13.74723 
	-11.841781 13.74723 
	-11.847248 13.79586 -7.7803873 141.31286 -23.377539 -174.84454 -30.347702 110.22213 
	-30.347702 110.22213 
	-11.847248 13.79586 -23.377539 -174.84454 -7.7803873 141.31286 -30.347702 110.22213 
	-30.347702 110.22213 
	-11.847248 13.79586 -30.347702 110.22213 -30.347702 110.22213 -7.7803873 141.31286 
	-23.377539 -174.84454 
	-11.847248 13.79586 -30.347702 110.22213 -30.347702 110.22213 -23.377539 -174.84454 
	-7.7803873 141.31286 
1.27 -8.5883036 80.839904 -11.792389 7.8257167 -11.792389 7.8257167 -11.792389 7.8257167 
	-11.792389 7.8257167 
	-11.797764 7.8711347 -7.9398632 140.19463 -23.248074 176.48765 -30.348248 98.533745 
	-30.348248 98.533745 
	-11.797764 7.8711347 -23.248074 176.48765 -7.9398632 140.19463 -30.348248 98.533745 
	-30.348248 98.533745 
	-11.797764 7.8711347 -30.348248 98.533745 -30.348248 98.533745 -7.9398632 140.19463 
	-23.248074 176.48765 
	-11.797764 7.8711347 -30.348248 98.533745 -30.348248 98.533745 -23.248074 176.48765 
	-7.9398632 140.19463 
1.28 -8.4663613 76.156848 -11.736239 1.9677653 -11.736239 1.9677653 -11.736239 1.9677653 
	-11.736239 1.9677653 
	-11.740214 2.0166623 -8.0937755 139.07756 -23.135062 167.84726 -30.355139 87.000224 
	-30.355139 87.000224 
	-11.740214 2.0166623 -23.135062 167.84726 -8.0937755 139.07756 -30.355139 87.000224 
	-30.355139 87.000224 
	-11.740214 2.0166623 -30.355139 87.000224 -30.355139 87.000224 -8.0937755 139.07756 
	-23.135062 167.84726 
	-11.740214 2.0166623 -30.355139 87.000224 -30.355139 87.000224 -23.135062 167.84726 
	-8.0937755 139.07756 
1.29 -8.4141256 71.454104 -11.671961 -3.8446478 -11.671961 -3.8446478 -11.671961 -3.8446478 
	-11.671961 -3.8446478 
	-11.675687 -3.7876598 -8.2428715 137.94262 -23.039677 159.23087 -30.366271 75.606801 
	-30.366271 75.606801 
	-11.675687 -3.7876598 -23.039677 159.23087 -8.2428715 137.94262 -30.366271 75.606801 
	-30.366271 75.606801 
	-11.675687 -3.7876598 -30.366271 75.606801 -30.366271 75.606801 -8.2428715 137.94262 
	-23.039677 159.23087 
	-11.675687 -3.7876598 -30.366271 75.606801 -30.366271 75.606801 -23.039677 159.23087 
	-8.2428715 137.94262 
1.3 -8.4214684 66.748883 -11.599505 -9.6269148 -11.599505 -9.6269148 -11.599505 -9.6269148 
	-11.599505 -9.6269148 
	-11.604667 -9.5650518 -8.3894864 136.78236 -22.961017 150.64158 -30.378622 64.331524 
	-30.378622 64.331524 
	-11.604667 -9.5650518 -22.961017 150.64158 -8.3894864 136.78236 -30.378622 64.331524 
	-30.378622 64.331524 
	-11.604667 -9.5650518 -30.378622 64.331524 -30.378622 64.331524 -8.3894864 136.78236 
	-22.961017 150.64158 
	-11.604667 -9.5650518 -30.378622 64.331524 -30.378622 64.331524 -22.961017 150.64158 
	-8.3894864 136.78236 
1.31 -8.4840422 62.045898 -11.522479 -15.377676 -11.522479 -15.377676 -11.522479 -15.377676 
	-11.522479 -15.377676 
	-11.525695 -15.32991 -8.5366888 135.63271 -22.899973 142.09781 -30.391501 53.173109 
	-30.391501 53.173109 
	-11.525695 -15.32991 -22.899973 142.09781 -8.5366888 135.63271 -30.391501 53.173109 
	-30.391501 53.173109 
	-11.525695 -15.32991 -30.391501 53.173109 -30.391501 53.173109 -8.5366888 135.63271 
	-22.899973 142.09781 
	-11.525695 -15.32991 -30.391501 53.173109 -30.391501 53.173109 -22.899973 142.09781 
	-8.5366888 135.63271 
1.32 -8.5994706 57.322077 -11.440064 -21.123702 -11.440064 -21.123702 -11.440064 -21.123702 
	-11.440064 -21.123702 
	-11.442727 -21.080128 -8.6807022 134.48851 -22.857695 133.59537 -30.40567 42.111638 
	-30.40567 42.111638 
	-11.442727 -21.080128 -22.857695 133.59537 -8.6807022 134.48851 -30.40567 42.111638 
	-30.40567 42.111638 
	-11.442727 -21.080128 -30.40567 42.111638 -30.40567 42.111638 -8.6807022 134.48851 
	-22.857695 133.59537 
	-11.442727 -21.080128 -30.40567 42.111638 -30.40567 42.111638 -22.857695 133.59537 
	-8.6807022 134.48851 
1.33 -8.7729306 52.572156 -11.351074 -26.85567 -11.351074 -26.85567 -11.351074 -26.85567 
	-11.351074 -26.85567 
	-11.355135 -26.81429 -8.8237914 133.35019 -22.831932 125.16472 -30.417516 31.166651 
	-30.417516 31.166651 
	-11.355135 -26.81429 -22.831932 125.16472 -8.8237914 133.35019 -30.417516 31.166651 
	-30.417516 31.166651 
	-11.355135 -26.81429 -30.417516 31.166651 -30.417516 31.166651 -8.8237914 133.35019 
	-22.831932 125.16472 
	-11.355135 -26.81429 -30.417516 31.166651 -30.417516 31.166651 -22.831932 125.16472 
	-8.8237914 133.35019 
1.34 -9.0042064 47.81904 -11.258179 -32.593009 -11.258179 -32.593009 -11.258179 -32.593009 
	-11.258179 -32.593009 
	-11.261862 -32.543149 -8.9641625 132.20991 -22.821967 116.80336 -30.425573 20.312951 
	-30.425573 20.312951 
	-11.261862 -32.543149 -22.821967 116.80336 -8.9641625 132.20991 -30.425573 20.312951 
	-30.425573 20.312951 
	-11.261862 -32.543149 -30.425573 20.312951 -30.425573 20.312951 -8.9641625 132.20991 
	-22.821967 116.80336 
	-11.261862 -32.543149 -30.425573 20.312951 -30.425573 20.312951 -22.821967 116.80336 
	-8.9641625 132.20991 
1.35 -9.2936146 43.111153 -11.161184 -38.345338 -11.161184 -38.345338 -11.161184 -38.345338 
	-11.161184 -38.345338 
	-11.163704 -38.284808 -9.1046133 131.07758 -22.825583 108.51184 -30.427064 9.5255997 
	-30.427064 9.5255997 
	-11.163704 -38.284808 -22.825583 108.51184 -9.1046133 131.07758 -30.427064 9.5255997 
	-30.427064 9.5255997 
	-11.163704 -38.284808 -30.427064 9.5255997 -30.427064 9.5255997 -9.1046133 131.07758 
	-22.825583 108.51184 
	-11.163704 -38.284808 -30.427064 9.5255997 -30.427064 9.5255997 -22.825583 108.51184 
	-9.1046133 131.07758 
1.36 -9.6360304 38.446631 -11.059972 -44.116748 -11.059972 -44.116748 -11.059972 -44.116748 
	-11.059972 -44.116748 
	-11.061968 -44.067906 -9.2458038 129.95025 -22.83922 100.26906 -30.420412 -1.2382032 
	-30.420412 -1.2382032 
	-11.061968 -44.067906 -22.83922 100.26906 -9.2458038 129.95025 -30.420412 -1.2382032 
	-30.420412 -1.2382032 
	-11.061968 -44.067906 -30.420412 -1.2382032 -30.420412 -1.2382032 -9.2458038 129.95025 
	-22.83922 100.26906 
	-11.061968 -44.067906 -30.420412 -1.2382032 -30.420412 -1.2382032 -22.83922 100.26906 
	-9.2458038 129.95025 
1.37 -10.033109 33.78292 -10.960751 -49.910198 -10.960751 -49.910198 -10.960751 -49.910198 
	-10.960751 -49.910198 
	-10.961643 -49.869382 -9.3862235 128.85241 -22.870842 92.093117 -30.415665 -11.968371 
	-30.415665 -11.968371 
	-10.961643 -49.869382 -22.870842 92.093117 -9.3862235 128.85241 -30.415665 -11.968371 
	-30.415665 -11.968371 
	-10.961643 -49.869382 -30.415665 -11.968371 -30.415665 -11.968371 -9.3862235 128.85241 
	-22.870842 92.093117 
	-10.961643 -49.869382 -30.415665 -11.968371 -30.415665 -11.968371 -22.870842 92.093117 
	-9.3862235 128.85241 
1.38 -10.49319 29.133312 -10.862896 -55.730871 -10.862896 -55.730871 -10.862896 -55.730871 
	-10.862896 -55.730871 
	-10.86503 -55.688083 -9.5244943 127.7813 -22.920227 83.987088 -30.413061 -22.671511 
	-30.413061 -22.671511 
	-10.86503 -55.688083 -22.920227 83.987088 -9.5244943 127.7813 -30.413061 -22.671511 
	-30.413061 -22.671511 
	-10.86503 -55.688083 -30.413061 -22.671511 -30.413061 -22.671511 -9.5244943 127.7813 
	-22.920227 83.987088 
	-10.86503 -55.688083 -30.413061 -22.671511 -30.413061 -22.671511 -22.920227 83.987088 
	-9.5244943 127.7813 
1.39 -11.023603 24.525283 -10.765279 -61.5609 -10.765279 -61.5609 -10.765279 -61.5609 
	-10.765279 -61.5609 
	-10.768639 -61.51962 -9.6607527 126.73888 -22.980205 75.97973 -30.406334 -33.330641 
	-30.406334 -33.330641 
	-10.768639 -61.51962 -22.980205 75.97973 -9.6607527 126.73888 -30.406334 -33.330641 
	-30.406334 -33.330641 
	-10.768639 -61.51962 -30.406334 -33.330641 -30.406334 -33.330641 -9.6607527 126.73888 
	-22.980205 75.97973 
	-10.768639 -61.51962 -30.406334 -33.330641 -30.406334 -33.330641 -22.980205 75.97973 
	-9.6607527 126.73888 
1.4 -11.629649 20.012482 -10.670597 -67.406804 -10.670597 -67.406804 -10.670597 -67.406804 
	-10.670597 -67.406804 
	-10.675665 -67.369652 -9.7936699 125.70555 -23.05348 68.064439 -30.399539 -43.966356 
	-30.399539 -43.966356 
	-10.675665 -67.369652 -23.05348 68.064439 -9.7936699 125.70555 -30.399539 -43.966356 
	-30.399539 -43.966356 
	-10.675665 -67.369652 -30.399539 -43.966356 -30.399539 -43.966356 -9.7936699 125.70555 
	-23.05348 68.064439 
	-10.675665 -67.369652 -30.399539 -43.966356 -30.399539 -43.966356 -23.05348 68.064439 
	-9.7936699 125.70555 
1.41 -12.310404 15.645061 -10.579172 -73.280752 -10.579172 -73.280752 -10.579172 -73.280752 
	-10.579172 -73.280752 
	-10.581796 -73.235121 -9.924689 124.7032 -23.132122 60.230337 -30.387205 -54.602341 
	-30.387205 -54.602341 
	-10.581796 -73.235121 -23.132122 60.230337 -9.924689 124.7032 -30.387205 -54.602341 
	-30.387205 -54.602341 
	-10.581796 -73.235121 -30.387205 -54.602341 -30.387205 -54.602341 -9.924689 124.7032 
	-23.132122 60.230337 
	-10.581796 -73.235121 -30.387205 -54.602341 -30.387205 -54.602341 -23.132122 60.230337 
	-9.924689 124.7032 
1.42 -13.073009 11.40934 -10.493136 -79.16557 -10.493136 -79.16557 -10.493136 -79.16557 
	-10.493136 -79.16557 
	-10.495479 -79.119817 -10.053629 123.74801 -23.224338 52.478157 -30.379965 -65.237644 
	-30.379965 -65.237644 
	-10.495479 -79.119817 -23.224338 52.478157 -10.053629 123.74801 -30.379965 -65.237644 
	-30.379965 -65.237644 
	-10.495479 -79.119817 -30.379965 -65.237644 -30.379965 -65.237644 -10.053629 123.74801 
	-23.224338 52.478157 
	-10.495479 -79.119817 -30.379965 -65.237644 -30.379965 -65.237644 -23.224338 52.478157 
	-10.053629 123.74801 
1.43 -13.926384 7.3678136 -10.409665 -85.054508 -10.409665 -85.054508 -10.409665 -85.054508 
	-10.409665 -85.054508 
	-10.413218 -85.018496 -10.173829 122.8229 -23.321603 44.813771 -30.370982 -75.87053 
	-30.370982 -75.87053 
	-10.413218 -85.018496 -23.321603 44.813771 -10.173829 122.8229 -30.370982 -75.87053 
	-30.370982 -75.87053 
	-10.413218 -85.018496 -30.370982 -75.87053 -30.370982 -75.87053 -10.173829 122.8229 
	-23.321603 44.813771 
	-10.413218 -85.018496 -30.370982 -75.87053 -30.370982 -75.87053 -23.321603 44.813771 
	-10.173829 122.8229 
1.44 -14.89206 3.5891955 -10.332889 -90.950385 -10.332889 -90.950385 -10.332889 -90.950385 
	-10.332889 -90.950385 
	-10.337484 -90.911948 -10.286792 121.91262 -23.429365 37.245442 -30.366859 -86.491082 
	-30.366859 -86.491082 
	-10.337484 -90.911948 -23.429365 37.245442 -10.286792 121.91262 -30.366859 -86.491082 
	-30.366859 -86.491082 
	-10.337484 -90.911948 -30.366859 -86.491082 -30.366859 -86.491082 -10.286792 121.91262 
	-23.429365 37.245442 
	-10.337484 -90.911948 -30.366859 -86.491082 -30.366859 -86.491082 -23.429365 37.245442 
	-10.286792 121.91262 
1.45 -15.970608 0.23056479 -10.261346 -96.846145 -10.261346 -96.846145 -10.261346 -96.846145 
	-10.261346 -96.846145 
	-10.266302 -96.807043 -10.391617 120.994 -23.541329 29.764094 -30.363669 -97.114817 
	-30.363669 -97.114817 
	-10.266302 -96.807043 -23.541329 29.764094 -10.391617 120.994 -30.363669 -97.114817 
	-30.363669 -97.114817 
	-10.266302 -96.807043 -30.363669 -97.114817 -30.363669 -97.114817 -10.391617 120.994 
	-23.541329 29.764094 
	-10.266302 -96.807043 -30.363669 -97.114817 -30.363669 -97.114817 -23.541329 29.764094 
	-10.391617 120.994 
1.46 -17.174589 -2.5939186 -10.197778 -102.74084 -10.197778 -102.74084 -10.197778 -102.74084 
	-10.197778 -102.74084 
	-10.201453 -102.70365 -10.496698 120.06889 -23.660872 22.355233 -30.366729 -107.75153 
	-30.366729 -107.75153 
	-10.201453 -102.70365 -23.660872 22.355233 -10.496698 120.06889 -30.366729 -107.75153 
	-30.366729 -107.75153 
	-10.201453 -102.70365 -30.366729 -107.75153 -30.366729 -107.75153 -10.496698 120.06889 
	-23.660872 22.355233 
	-10.201453 -102.70365 -30.366729 -107.75153 -30.366729 -107.75153 -23.660872 22.355233 
	-10.496698 120.06889 
1.47 -18.521286 -4.7010132 -10.138776 -108.62894 -10.138776 -108.62894 -10.138776 -108.62894 
	-10.138776 -108.62894 
	-10.142517 -108.58749 -10.590283 119.13836 -23.783559 15.024514 -30.373108 -118.38994 
	-30.373108 -118.38994 
	-10.142517 -108.58749 -23.783559 15.024514 -10.590283 119.13836 -30.373108 -118.38994 
	-30.373108 -118.38994 
	-10.142517 -108.58749 -30.373108 -118.38994 -30.373108 -118.38994 -10.590283 119.13836 
	-23.783559 15.024514 
	-10.142517 -108.58749 -30.373108 -118.38994 -30.373108 -118.38994 -23.783559 15.024514 
	-10.590283 119.13836 
1.48 -20.041489 -5.8123557 -10.085186 -114.49964 -10.085186 -114.49964 -10.085186 -114.49964 
	-10.085186 -114.49964 
	-10.090038 -114.46081 -10.67883 118.19866 -23.910873 7.7678176 -30.385268 -129.02622 
	-30.385268 -129.02622 
	-10.090038 -114.46081 -23.910873 7.7678176 -10.67883 118.19866 -30.385268 -129.02622 
	-30.385268 -129.02622 
	-10.090038 -114.46081 -30.385268 -129.02622 -30.385268 -129.02622 -10.67883 118.19866 
	-23.910873 7.7678176 
	-10.090038 -114.46081 -30.385268 -129.02622 -30.385268 -129.02622 -23.910873 7.7678176 
	-10.67883 118.19866 
1.49 -21.742085 -5.2765347 -10.039596 -120.34635 -10.039596 -120.34635 -10.039596 -120.34635 
	-10.039596 -120.34635 
	-10.04337 -120.30812 -10.75936 117.23967 -24.044171 0.59828256 -30.405482 -139.64635 
	-30.405482 -139.64635 
	-10.04337 -120.30812 -24.044171 0.59828256 -10.75936 117.23967 -30.405482 -139.64635 
	-30.405482 -139.64635 
	-10.04337 -120.30812 -30.405482 -139.64635 -30.405482 -139.64635 -10.75936 117.23967 
	-24.044171 0.59828256 
	-10.04337 -120.30812 -30.405482 -139.64635 -30.405482 -139.64635 -24.044171 0.59828256 
	-10.75936 117.23967 
1.5 -23.595337 -2.2492416 -10.000483 -126.16909 -10.000483 -126.16909 -10.000483 -126.16909 
	-10.000483 -126.16909 
	-10.001767 -126.1285 -10.835374 116.27073 -24.181302 -6.496152 -30.432692 -150.25624 
	-30.432692 -150.25624 
	-10.001767 -126.1285 -24.181302 -6.496152 -10.835374 116.27073 -30.432692 -150.25624 
	-30.432692 -150.25624 
	-10.001767 -126.1285 -30.432692 -150.25624 -30.432692 -150.25624 -10.835374 116.27073 
	-24.181302 -6.496152 
	-10.001767 -126.1285 -30.432692 -150.25624 -30.432692 -150.25624 -24.181302 -6.496152 
	-10.835374 116.27073 
1.51 -25.481643 4.4614739 -9.9635748 -131.96341 -9.9635748 -131.96341 -9.9635748 -131.96341 
	-9.9635748 -131.96341 
	-9.964157 -131.92272 -10.905259 115.27193 -24.317508 -13.522614 -30.462816 -160.85644 
	-30.462816 -160.85644 
	-9.964157 -131.92272 -24.317508 -13.522614 -10.905259 115.27193 -30.462816 -160.85644 
	-30.462816 -160.85644 
	-9.964157 -131.92272 -30.462816 -160.85644 -30.462816 -160.85644 -10.905259 115.27193 
	-24.317508 -13.522614 
	-9.964157 -131.92272 -30.462816 -160.85644 -30.462816 -160.85644 -24.317508 -13.522614 
	-10.905259 115.27193 
1.52 -27.083141 15.809756 -9.9315406 -137.72758 -9.9315406 -137.72758 -9.9315406 -137.72758 
	-9.9315406 -137.72758 
	-9.9339782 -137.69342 -10.968555 114.26287 -24.459832 -20.491075 -30.503335 -171.44983 
	-30.503335 -171.44983 
	-9.9339782 -137.69342 -24.459832 -20.491075 -10.968555 114.26287 -30.503335 -171.44983 
	-30.503335 -171.44983 
	-9.9339782 -137.69342 -30.503335 -171.44983 -30.503335 -171.44983 -10.968555 114.26287 
	-24.459832 -20.491075 
	-9.9339782 -137.69342 -30.503335 -171.44983 -30.503335 -171.44983 -24.459832 -20.491075 
	-10.968555 114.26287 
1.53 -27.896891 30.798572 -9.9021478 -143.46644 -9.9021478 -143.46644 -9.9021478 -143.46644 