! AWR Design Environment (19377) Sat Dec 27 00:59:09 2025
! Document = 'Physical_2_way'
! nPorts: 3, nXvals: 401

# GHz S DB R 50
!Freq DBS11 AngS11 DBS12 AngS12 DBS13 AngS13 
!	DBS21 AngS21 DBS22 AngS22 DBS23 AngS23 
!	DBS31 AngS31 DBS32 AngS32 DBS33 AngS33 
1 -11.959564 114.45573 -3.3462328 -75.941542 -3.3462328 -75.941542 
	-3.3462328 -75.941542 -21.091461 -3.6351094 -11.751498 -105.92798 
	-3.3462328 -75.941542 -11.751498 -105.92798 -21.091461 -3.6351094 
1.01 -12.010883 113.79145 -3.3430518 -76.713905 -3.3430518 -76.713905 
	-3.3430518 -76.713905 -21.217643 -5.1211589 -11.838847 -106.6851 
	-3.3430518 -76.713905 -11.838847 -106.6851 -21.217643 -5.1211589 
1.02 -12.062886 113.12688 -3.339868 -77.486596 -3.339868 -77.486596 
	-3.339868 -77.486596 -21.34346 -6.6070079 -11.926387 -107.44244 
	-3.339868 -77.486596 -11.926387 -107.44244 -21.34346 -6.6070079 
1.03 -12.115583 112.46206 -3.3366822 -78.259616 -3.3366822 -78.259616 
	-3.3366822 -78.259616 -21.468919 -8.0926813 -12.014136 -108.20005 
	-3.3366822 -78.259616 -12.014136 -108.20005 -21.468919 -8.0926813 
1.04 -12.168979 111.797 -3.3334949 -79.032964 -3.3334949 -79.032964 
	-3.3334949 -79.032964 -21.594009 -9.5782189 -12.102109 -108.958 
	-3.3334949 -79.032964 -12.102109 -108.958 -21.594009 -9.5782189 
1.05 -12.223082 111.13166 -3.3303072 -79.80664 -3.3303072 -79.80664 
	-3.3303072 -79.80664 -21.718715 -11.063633 -12.190324 -109.71637 
	-3.3303072 -79.80664 -12.190324 -109.71637 -21.718715 -11.063633 
1.06 -12.277894 110.46607 -3.32712 -80.580643 -3.32712 -80.580643 
	-3.32712 -80.580643 -21.843032 -12.54901 -12.278796 -110.4752 
	-3.32712 -80.580643 -12.278796 -110.4752 -21.843032 -12.54901 
1.07 -12.333424 109.80021 -3.323934 -81.35497 -3.323934 -81.35497 
	-3.323934 -81.35497 -21.966949 -14.034339 -12.367542 -111.23456 
	-3.323934 -81.35497 -12.367542 -111.23456 -21.966949 -14.034339 
1.08 -12.38968 109.13411 -3.3207496 -82.129624 -3.3207496 -82.129624 
	-3.3207496 -82.129624 -22.090469 -15.519633 -12.456577 -111.99451 
	-3.3207496 -82.129624 -12.456577 -111.99451 -22.090469 -15.519633 
1.09 -12.446668 108.46776 -3.3175678 -82.904602 -3.3175678 -82.904602 
	-3.3175678 -82.904602 -22.213578 -17.004901 -12.54592 -112.7551 
	-3.3175678 -82.904602 -12.54592 -112.7551 -22.213578 -17.004901 
1.1 -12.504396 107.80118 -3.3143895 -83.679905 -3.3143895 -83.679905 
	-3.3143895 -83.679905 -22.336274 -18.490128 -12.635585 -113.5164 
	-3.3143895 -83.679905 -12.635585 -113.5164 -22.336274 -18.490128 
1.11 -12.562872 107.13435 -3.3112146 -84.45553 -3.3112146 -84.45553 
	-3.3112146 -84.45553 -22.458535 -19.975365 -12.725589 -114.27845 
	-3.3112146 -84.45553 -12.725589 -114.27845 -22.458535 -19.975365 
1.12 -12.6221 106.46726 -3.3080453 -85.231476 -3.3080453 -85.231476 
	-3.3080453 -85.231476 -22.58036 -21.460542 -12.81595 -115.0413 
	-3.3080453 -85.231476 -12.81595 -115.0413 -22.58036 -21.460542 
1.13 -12.682087 105.79994 -3.3048817 -86.007743 -3.3048817 -86.007743 
	-3.3048817 -86.007743 -22.701749 -22.945685 -12.906683 -115.805 
	-3.3048817 -86.007743 -12.906683 -115.805 -22.701749 -22.945685 
1.14 -12.742847 105.1324 -3.3017239 -86.78433 -3.3017239 -86.78433 
	-3.3017239 -86.78433 -22.822688 -24.430745 -12.997805 -116.56962 
	-3.3017239 -86.78433 -12.997805 -116.56962 -22.822688 -24.430745 
1.15 -12.804384 104.46462 -3.2985731 -87.561235 -3.2985731 -87.561235 
	-3.2985731 -87.561235 -22.943169 -25.915712 -13.089331 -117.33519 
	-3.2985731 -87.561235 -13.089331 -117.33519 -22.943169 -25.915712 
1.16 -12.866708 103.79664 -3.2954302 -88.338458 -3.2954302 -88.338458 
	-3.2954302 -88.338458 -23.063196 -27.400492 -13.181281 -118.10178 
	-3.2954302 -88.338458 -13.181281 -118.10178 -23.063196 -27.400492 
1.17 -12.929823 103.12841 -3.2922957 -89.115994 -3.2922957 -89.115994 
	-3.2922957 -89.115994 -23.182742 -28.885153 -13.273668 -118.86941 
	-3.2922957 -89.115994 -13.273668 -118.86941 -23.182742 -28.885153 
1.18 -12.993739 102.45996 -3.2891706 -89.893843 -3.2891706 -89.893843 
	-3.2891706 -89.893843 -23.301801 -30.369584 -13.366511 -119.63813 
	-3.2891706 -89.893843 -13.366511 -119.63813 -23.301801 -30.369584 
1.19 -13.058465 101.79131 -3.2860554 -90.672005 -3.2860554 -90.672005 
	-3.2860554 -90.672005 -23.420381 -31.853743 -13.459826 -120.408 
	-3.2860554 -90.672005 -13.459826 -120.408 -23.420381 -31.853743 
1.2 -13.12401 101.12245 -3.2829507 -91.450477 -3.2829507 -91.450477 
	-3.2829507 -91.450477 -23.538467 -33.337592 -13.55363 -121.17906 
	-3.2829507 -91.450477 -13.55363 -121.17906 -23.538467 -33.337592 
1.21 -13.190383 100.4534 -3.2798574 -92.229258 -3.2798574 -92.229258 
	-3.2798574 -92.229258 -23.656061 -34.821051 -13.647939 -121.95136 
	-3.2798574 -92.229258 -13.647939 -121.95136 -23.656061 -34.821051 
1.22 -13.257591 99.784146 -3.2767759 -93.008345 -3.2767759 -93.008345 
	-3.2767759 -93.008345 -23.77314 -36.304059 -13.74277 -122.72493 
	-3.2767759 -93.008345 -13.74277 -122.72493 -23.77314 -36.304059 
1.23 -13.325645 99.114681 -3.2737072 -93.787735 -3.2737072 -93.787735 
	-3.2737072 -93.787735 -23.889697 -37.786531 -13.83814 -123.49982 
	-3.2737072 -93.787735 -13.83814 -123.49982 -23.889697 -37.786531 
1.24 -13.394553 98.44504 -3.2706521 -94.567428 -3.2706521 -94.567428 
	-3.2706521 -94.567428 -24.005748 -39.268387 -13.934068 -124.27608 
	-3.2706521 -94.567428 -13.934068 -124.27608 -24.005748 -39.268387 
1.25 -13.464326 97.775219 -3.2676109 -95.347422 -3.2676109 -95.347422 
	-3.2676109 -95.347422 -24.121271 -40.749565 -14.03057 -125.05374 
	-3.2676109 -95.347422 -14.03057 -125.05374 -24.121271 -40.749565 
1.26 -13.534973 97.105224 -3.2645841 -96.127714 -3.2645841 -96.127714 
	-3.2645841 -96.127714 -24.236263 -42.229967 -14.127661 -125.83285 
	-3.2645841 -96.127714 -14.127661 -125.83285 -24.236263 -42.229967 
1.27 -13.606505 96.435076 -3.2615732 -96.908302 -3.2615732 -96.908302 
	-3.2615732 -96.908302 -24.350734 -43.709427 -14.225363 -126.61346 
	-3.2615732 -96.908302 -14.225363 -126.61346 -24.350734 -43.709427 
1.28 -13.67893 95.76475 -3.2585778 -97.689182 -3.2585778 -97.689182 
	-3.2585778 -97.689182 -24.46465 -45.187969 -14.323689 -127.3956 
	-3.2585778 -97.689182 -14.323689 -127.3956 -24.46465 -45.187969 
1.29 -13.752258 95.094247 -3.2555996 -98.470353 -3.2555996 -98.470353 
	-3.2555996 -98.470353 -24.578018 -46.665382 -14.42266 -128.17931 
	-3.2555996 -98.470353 -14.42266 -128.17931 -24.578018 -46.665382 
1.3 -13.826503 94.423612 -3.2526381 -99.251812 -3.2526381 -99.251812 
	-3.2526381 -99.251812 -24.690843 -48.141638 -14.522291 -128.96465 
	-3.2526381 -99.251812 -14.522291 -128.96465 -24.690843 -48.141638 
1.31 -13.901672 93.752835 -3.249695 -100.03356 -3.249695 -100.03356 
	-3.249695 -100.03356 -24.80312 -49.616551 -14.622603 -129.75165 
	-3.249695 -100.03356 -14.622603 -129.75165 -24.80312 -49.616551 
1.32 -13.977778 93.081921 -3.2467702 -100.81559 -3.2467702 -100.81559 
	-3.2467702 -100.81559 -24.914842 -51.090043 -14.723611 -130.54036 
	-3.2467702 -100.81559 -14.723611 -130.54036 -24.914842 -51.090043 
1.33 -14.054831 92.410901 -3.2438647 -101.5979 -3.2438647 -101.5979 
	-3.2438647 -101.5979 -25.026013 -52.56197 -14.825335 -131.33081 
	-3.2438647 -101.5979 -14.825335 -131.33081 -25.026013 -52.56197 
1.34 -14.132842 91.739723 -3.240979 -102.38048 -3.240979 -102.38048 
	-3.240979 -102.38048 -25.136609 -54.032197 -14.927793 -132.12306 
	-3.240979 -102.38048 -14.927793 -132.12306 -25.136609 -54.032197 
1.35 -14.211826 91.068444 -3.2381135 -103.16334 -3.2381135 -103.16334 
	-3.2381135 -103.16334 -25.246658 -55.500593 -15.031005 -132.91714 
	-3.2381135 -103.16334 -15.031005 -132.91714 -25.246658 -55.500593 
1.36 -14.291794 90.397072 -3.2352689 -103.94647 -3.2352689 -103.94647 
	-3.2352689 -103.94647 -25.356142 -56.967006 -15.134987 -133.71311 
	-3.2352689 -103.94647 -15.134987 -133.71311 -25.356142 -56.967006 
1.37 -14.372757 89.7256 -3.2324457 -104.72987 -3.2324457 -104.72987 
	-3.2324457 -104.72987 -25.465067 -58.431306 -15.239761 -134.51101 
	-3.2324457 -104.72987 -15.239761 -134.51101 -25.465067 -58.431306 
1.38 -14.454731 89.054063 -3.2296445 -105.51354 -3.2296445 -105.51354 
	-3.2296445 -105.51354 -25.573442 -59.893319 -15.345345 -135.31089 
	-3.2296445 -105.51354 -15.345345 -135.31089 -25.573442 -59.893319 
1.39 -14.537723 88.382431 -3.2268662 -106.29747 -3.2268662 -106.29747 
	-3.2268662 -106.29747 -25.681247 -61.352923 -15.451758 -136.11279 
	-3.2268662 -106.29747 -15.451758 -136.11279 -25.681247 -61.352923 
1.4 -14.621749 87.710711 -3.2241107 -107.08166 -3.2241107 -107.08166 
	-3.2241107 -107.08166 -25.788483 -62.809929 -15.559021 -136.91675 
	-3.2241107 -107.08166 -15.559021 -136.91675 -25.788483 -62.809929 
1.41 -14.706823 87.038954 -3.221379 -107.8661 -3.221379 -107.8661 
	-3.221379 -107.8661 -25.895173 -64.264223 -15.667152 -137.72284 
	-3.221379 -107.8661 -15.667152 -137.72284 -25.895173 -64.264223 
1.42 -14.792959 86.367149 -3.2186716 -108.6508 -3.2186716 -108.6508 
	-3.2186716 -108.6508 -26.001309 -65.715622 -15.776174 -138.5311 
	-3.2186716 -108.6508 -15.776174 -138.5311 -26.001309 -65.715622 
1.43 -14.88017 85.695304 -3.2159886 -109.43574 -3.2159886 -109.43574 
	-3.2159886 -109.43574 -26.106895 -67.163965 -15.886105 -139.34158 
	-3.2159886 -109.43574 -15.886105 -139.34158 -26.106895 -67.163965 
1.44 -14.968472 85.02345 -3.2133309 -110.22094 -3.2133309 -110.22094 
	-3.2133309 -110.22094 -26.211942 -68.609105 -15.996967 -140.15435 
	-3.2133309 -110.22094 -15.996967 -140.15435 -26.211942 -68.609105 
1.45 -15.057878 84.351553 -3.2106989 -111.00637 -3.2106989 -111.00637 
	-3.2106989 -111.00637 -26.31643 -70.050746 -16.108781 -140.96943 
	-3.2106989 -111.00637 -16.108781 -140.96943 -26.31643 -70.050746 
1.46 -15.148405 83.679664 -3.2080931 -111.79204 -3.2080931 -111.79204 
	-3.2080931 -111.79204 -26.420393 -71.48886 -16.22157 -141.78691 
	-3.2080931 -111.79204 -16.22157 -141.78691 -26.420393 -71.48886 
1.47 -15.240067 83.007783 -3.2055141 -112.57795 -3.2055141 -112.57795 
	-3.2055141 -112.57795 -26.523829 -72.923208 -16.335354 -142.60683 
	-3.2055141 -112.57795 -16.335354 -142.60683 -26.523829 -72.923208 
1.48 -15.332884 82.335922 -3.2029619 -113.36409 -3.2029619 -113.36409 
	-3.2029619 -113.36409 -26.626747 -74.353588 -16.450157 -143.42926 
	-3.2029619 -113.36409 -16.450157 -143.42926 -26.626747 -74.353588 
1.49 -15.426867 81.664119 -3.2004372 -114.15046 -3.2004372 -114.15046 
	-3.2004372 -114.15046 -26.729148 -75.779916 -16.565999 -144.25425 
	-3.2004372 -114.15046 -16.565999 -144.25425 -26.729148 -75.779916 
1.5 -15.522035 80.992343 -3.1979404 -114.93705 -3.1979404 -114.93705 
	-3.1979404 -114.93705 -26.831032 -77.201905 -16.682905 -145.08187 
	-3.1979404 -114.93705 -16.682905 -145.08187 -26.831032 -77.201905 
1.51 -15.618406 80.320602 -3.1954719 -115.72386 -3.1954719 -115.72386 
	-3.1954719 -115.72386 -26.932412 -78.619357 -16.800898 -145.91219 
	-3.1954719 -115.72386 -16.800898 -145.91219 -26.932412 -78.619357 
1.52 -15.715997 79.648958 -3.1930323 -116.51089 -3.1930323 -116.51089 
	-3.1930323 -116.51089 -27.033311 -80.032178 -16.920002 -146.74527 
	-3.1930323 -116.51089 -16.920002 -146.74527 -27.033311 -80.032178 
1.53 -15.814826 78.977398 -3.1906219 -117.29813 -3.1906219 -117.29813 
	-3.1906219 -117.29813 -27.133732 -81.440134 -17.040242 -147.58119 
	-3.1906219 -117.29813 -17.040242 -147.58119 -27.133732 -81.440134 
1.54 -15.91491 78.305948 -3.1882409 -118.08558 -3.1882409 -118.08558 
	-3.1882409 -118.08558 -27.233674 -82.84307 -17.16164 -148.42001 
	-3.1882409 -118.08558 -17.16164 -148.42001 -27.233674 -82.84307 
1.55 -16.016273 77.634634 -3.1858896 -118.87323 -3.1858896 -118.87323 
	-3.1858896 -118.87323 -27.333171 -84.240782 -17.284225 -149.26183 
	-3.1858896 -118.87323 -17.284225 -149.26183 -27.333171 -84.240782 
1.56 -16.118933 76.963417 -3.1835688 -119.66109 -3.1835688 -119.66109 
	-3.1835688 -119.66109 -27.432209 -85.632932 -17.408021 -150.10671 
	-3.1835688 -119.66109 -17.408021 -150.10671 -27.432209 -85.632932 
1.57 -16.222908 76.29237 -3.1812788 -120.44914 -3.1812788 -120.44914 
	-3.1812788 -120.44914 -27.530824 -87.019515 -17.533056 -150.95474 
	-3.1812788 -120.44914 -17.533056 -150.95474 -27.530824 -87.019515 
1.58 -16.328223 75.621487 -3.1790192 -121.23739 -3.1790192 -121.23739 
	-3.1790192 -121.23739 -27.629015 -88.400299 -17.659355 -151.806 
	-3.1790192 -121.23739 -17.659355 -151.806 -27.629015 -88.400299 
1.59 -16.4349 74.950799 -3.1767909 -122.02582 -3.1767909 -122.02582 
	-3.1767909 -122.02582 -27.726806 -89.775015 -17.786947 -152.6606 
	-3.1767909 -122.02582 -17.786947 -152.6606 -27.726806 -89.775015 
1.6 -16.542954 74.28031 -3.1745943 -122.81444 -3.1745943 -122.81444 
	-3.1745943 -122.81444 -27.824198 -91.143572 -17.915859 -153.51861 
	-3.1745943 -122.81444 -17.915859 -153.51861 -27.824198 -91.143572 
1.61 -16.652413 73.61007 -3.1724292 -123.60324 -3.1724292 -123.60324 
	-3.1724292 -123.60324 -27.921213 -92.505775 -18.04612 -154.38015 
	-3.1724292 -123.60324 -18.04612 -154.38015 -27.921213 -92.505775 
1.62 -16.7633 72.940033 -3.1702967 -124.39221 -3.1702967 -124.39221 
	-3.1702967 -124.39221 -28.017856 -93.861246 -18.177761 -155.2453 
	-3.1702967 -124.39221 -18.177761 -155.2453 -28.017856 -93.861246 
1.63 -16.87564 72.270284 -3.1681961 -125.18136 -3.1681961 -125.18136 
	-3.1681961 -125.18136 -28.114154 -95.210003 -18.31081 -156.11418 
	-3.1681961 -125.18136 -18.31081 -156.11418 -28.114154 -95.210003 
1.64 -16.989456 71.600815 -3.1661282 -125.97067 -3.1661282 -125.97067 
	-3.1661282 -125.97067 -28.210121 -96.55179 -18.4453 -156.98691 
	-3.1661282 -125.97067 -18.4453 -156.98691 -28.210121 -96.55179 
1.65 -17.104775 70.931657 -3.1640929 -126.76015 -3.1640929 -126.76015 
	-3.1640929 -126.76015 -28.305769 -97.886403 -18.581261 -157.8636 
	-3.1640929 -126.76015 -18.581261 -157.8636 -28.305769 -97.886403 
1.66 -17.221623 70.262863 -3.1620909 -127.54979 -3.1620909 -127.54979 
	-3.1620909 -127.54979 -28.401122 -99.213689 -18.718727 -158.74438 
	-3.1620909 -127.54979 -18.718727 -158.74438 -28.401122 -99.213689 
1.67 -17.340029 69.594367 -3.1601222 -128.33958 -3.1601222 -128.33958 
	-3.1601222 -128.33958 -28.496184 -100.53329 -18.857732 -159.62937 
	-3.1601222 -128.33958 -18.857732 -159.62937 -28.496184 -100.53329 
1.68 -17.46002 68.926277 -3.1581868 -129.12952 -3.1581868 -129.12952 
	-3.1581868 -129.12952 -28.590984 -101.84523 -18.998308 -160.51871 
	-3.1581868 -129.12952 -18.998308 -160.51871 -28.590984 -101.84523 
1.69 -17.581625 68.258595 -3.156285 -129.91961 -3.156285 -129.91961 
	-3.156285 -129.91961 -28.685535 -103.14921 -19.140492 -161.41254 
	-3.156285 -129.91961 -19.140492 -161.41254 -28.685535 -103.14921 
1.7 -17.704879 67.59135 -3.1544171 -130.70984 -3.1544171 -130.70984 
	-3.1544171 -130.70984 -28.779866 -104.44502 -19.28432 -162.31103 
	-3.1544171 -130.70984 -19.28432 -162.31103 -28.779866 -104.44502 
1.71 -17.829807 66.924562 -3.1525827 -131.50021 -3.1525827 -131.50021 
	-3.1525827 -131.50021 -28.873969 -105.73257 -19.429827 -163.21432 
	-3.1525827 -131.50021 -19.429827 -163.21432 -28.873969 -105.73257 
1.72 -17.956439 66.25829 -3.1507829 -132.29072 -3.1507829 -132.29072 
	-3.1507829 -132.29072 -28.967887 -107.01166 -19.577053 -164.12259 
	-3.1507829 -132.29072 -19.577053 -164.12259 -28.967887 -107.01166 
1.73 -18.084817 65.592497 -3.1490172 -133.08135 -3.1490172 -133.08135 
	-3.1490172 -133.08135 -29.061615 -108.28188 -19.726037 -165.036 
	-3.1490172 -133.08135 -19.726037 -165.036 -29.061615 -108.28188 
1.74 -18.214965 64.927274 -3.1472858 -133.87211 -3.1472858 -133.87211 
	-3.1472858 -133.87211 -29.155182 -109.54335 -19.876818 -165.95473 
	-3.1472858 -133.87211 -19.876818 -165.95473 -29.155182 -109.54335 
1.75 -18.34693 64.262651 -3.1455886 -134.66299 -3.1455886 -134.66299 
	-3.1455886 -134.66299 -29.248611 -110.79568 -20.029439 -166.879 
	-3.1455886 -134.66299 -20.029439 -166.879 -29.248611 -110.79568 
1.76 -18.480745 63.598646 -3.1439261 -135.45398 -3.1439261 -135.45398 
	-3.1439261 -135.45398 -29.341917 -112.03877 -20.183944 -167.80901 
	-3.1439261 -135.45398 -20.183944 -167.80901 -29.341917 -112.03877 
1.77 -18.616446 62.935316 -3.1422979 -136.24509 -3.1422979 -136.24509 
	-3.1422979 -136.24509 -29.435121 -113.2725 -20.340372 -168.74498 
	-3.1422979 -136.24509 -20.340372 -168.74498 -29.435121 -113.2725 
1.78 -18.754079 62.272645 -3.1407043 -137.03631 -3.1407043 -137.03631 
	-3.1407043 -137.03631 -29.528228 -114.4964 -20.498774 -169.68713 
	-3.1407043 -137.03631 -20.498774 -169.68713 -29.528228 -114.4964 
1.79 -18.893677 61.61074 -3.1391457 -137.82762 -3.1391457 -137.82762 
	-3.1391457 -137.82762 -29.62127 -115.71057 -20.659194 -170.63571 
	-3.1391457 -137.82762 -20.659194 -170.63571 -29.62127 -115.71057 
1.8 -19.03529 60.949607 -3.1376214 -138.61904 -3.1376214 -138.61904 
	-3.1376214 -138.61904 -29.714257 -116.91475 -20.821679 -171.59097 
	-3.1376214 -138.61904 -20.821679 -171.59097 -29.714257 -116.91475 
1.81 -19.178963 60.289317 -3.1361319 -139.41056 -3.1361319 -139.41056 
	-3.1361319 -139.41056 -29.807218 -118.10867 -20.986281 -172.5532 
	-3.1361319 -139.41056 -20.986281 -172.5532 -29.807218 -118.10867 
1.82 -19.324735 59.629879 -3.1346771 -140.20216 -3.1346771 -140.20216 
	-3.1346771 -140.20216 -29.90015 -119.29228 -21.153048 -173.52268 
	-3.1346771 -140.20216 -21.153048 -173.52268 -29.90015 -119.29228 
1.83 -19.472659 58.971385 -3.133257 -140.99385 -3.133257 -140.99385 
	-3.133257 -140.99385 -29.993074 -120.46527 -21.322032 -174.49971 
	-3.133257 -140.99385 -21.322032 -174.49971 -29.993074 -120.46527 
1.84 -19.622784 58.313842 -3.1318715 -141.78562 -3.1318715 -141.78562 
	-3.1318715 -141.78562 -30.086016 -121.62758 -21.493291 -175.48462 
	-3.1318715 -141.78562 -21.493291 -175.48462 -30.086016 -121.62758 
1.85 -19.775164 57.657335 -3.1305207 -142.57747 -3.1305207 -142.57747 
	-3.1305207 -142.57747 -30.178983 -122.77894 -21.666878 -176.47776 
	-3.1305207 -142.57747 -21.666878 -176.47776 -30.178983 -122.77894 
1.86 -19.929852 57.001909 -3.1292045 -143.36939 -3.1292045 -143.36939 
	-3.1292045 -143.36939 -30.271994 -123.9192 -21.842851 -177.4795 
	-3.1292045 -143.36939 -21.842851 -177.4795 -30.271994 -123.9192 
1.87 -20.086906 56.347637 -3.1279227 -144.16139 -3.1279227 -144.16139 
	-3.1279227 -144.16139 -30.365062 -125.04815 -22.021269 -178.49022 
	-3.1279227 -144.16139 -22.021269 -178.49022 -30.365062 -125.04815 
1.88 -20.246384 55.694573 -3.1266753 -144.95345 -3.1266753 -144.95345 
	-3.1266753 -144.95345 -30.458199 -126.16562 -22.202193 -179.51034 
	-3.1266753 -144.95345 -22.202193 -179.51034 -30.458199 -126.16562 
1.89 -20.408349 55.042787 -3.1254622 -145.74557 -3.1254622 -145.74557 
	-3.1254622 -145.74557 -30.551422 -127.2714 -22.385686 179.45969 
	-3.1254622 -145.74557 -22.385686 179.45969 -30.551422 -127.2714 
1.9 -20.572864 54.392348 -3.1242836 -146.53775 -3.1242836 -146.53775 
	-3.1242836 -146.53775 -30.644744 -128.36536 -22.571814 178.41941 
	-3.1242836 -146.53775 -22.571814 178.41941 -30.644744 -128.36536 
1.91 -20.739999 53.74333 -3.1231387 -147.32998 -3.1231387 -147.32998 
	-3.1231387 -147.32998 -30.738171 -129.44731 -22.760642 177.3683 
	-3.1231387 -147.32998 -22.760642 177.3683 -30.738171 -129.44731 
1.92 -20.909826 53.095844 -3.1220281 -148.12226 -3.1220281 -148.12226 
	-3.1220281 -148.12226 -30.831732 -130.51695 -22.952242 176.30584 
	-3.1220281 -148.12226 -22.952242 176.30584 -30.831732 -130.51695 
1.93 -21.08241 52.449937 -3.1209512 -148.91458 -3.1209512 -148.91458 
	-3.1209512 -148.91458 -30.925408 -131.57423 -23.14668 175.23144 
	-3.1209512 -148.91458 -23.14668 175.23144 -30.925408 -131.57423 
1.94 -21.257837 51.805714 -3.1199077 -149.70695 -3.1199077 -149.70695 
	-3.1199077 -149.70695 -31.019219 -132.61891 -23.344029 174.1445 
	-3.1199077 -149.70695 -23.344029 174.1445 -31.019219 -132.61891 
1.95 -21.436178 51.163263 -3.118898 -150.49936 -3.118898 -150.49936 
	-3.118898 -150.49936 -31.113169 -133.65088 -23.544365 173.04436 
	-3.118898 -150.49936 -23.544365 173.04436 -31.113169 -133.65088 
1.96 -21.61753 50.522707 -3.1179216 -151.2918 -3.1179216 -151.2918 
	-3.1179216 -151.2918 -31.20728 -134.66984 -23.747768 171.93032 
	-3.1179216 -151.2918 -23.747768 171.93032 -31.20728 -134.66984 
1.97 -21.801976 49.884156 -3.1169784 -152.08426 -3.1169784 -152.08426 
	-3.1169784 -152.08426 -31.30155 -135.67562 -23.954315 170.80161 
	-3.1169784 -152.08426 -23.954315 170.80161 -31.30155 -135.67562 
1.98 -21.989613 49.247715 -3.1160682 -152.87676 -3.1160682 -152.87676 
	-3.1160682 -152.87676 -31.395981 -136.66809 -24.164086 169.65744 
	-3.1160682 -152.87676 -24.164086 169.65744 -31.395981 -136.66809 
1.99 -22.180537 48.613511 -3.1151905 -153.66927 -3.1151905 -153.66927 
	-3.1151905 -153.66927 -31.490578 -137.64702 -24.377161 168.49693 
	-3.1151905 -153.66927 -24.377161 168.49693 -31.490578 -137.64702 
2 -22.374854 47.98169 -3.1143454 -154.46181 -3.1143454 -154.46181 
	-3.1143454 -154.46181 -31.585343 -138.6122 -24.593626 167.31914 
	-3.1143454 -154.46181 -24.593626 167.31914 -31.585343 -138.6122 
2.01 -22.572671 47.352396 -3.1135327 -155.25436 -3.1135327 -155.25436 
	-3.1135327 -155.25436 -31.680275 -139.5635 -24.813568 166.12308 
	-3.1135327 -155.25436 -24.813568 166.12308 -31.680275 -139.5635 
2.02 -22.774104 46.725766 -3.112752 -156.04692 -3.112752 -156.04692 
	-3.112752 -156.04692 -31.775377 -140.50072 -25.037072 164.90767 
	-3.112752 -156.04692 -25.037072 164.90767 -31.775377 -140.50072 
2.03 -22.979284 46.102017 -3.1120029 -156.83949 -3.1120029 -156.83949 
	-3.1120029 -156.83949 -31.870653 -141.42358 -25.264226 163.67175 
	-3.1120029 -156.83949 -25.264226 163.67175 -31.870653 -141.42358 
2.04 -23.188322 45.48129 -3.1112854 -157.63207 -3.1112854 -157.63207 
	-3.1112854 -157.63207 -31.966076 -142.33199 -25.495118 162.41406 
	-3.1112854 -157.63207 -25.495118 162.41406 -31.966076 -142.33199 
2.05 -23.401372 44.863749 -3.110599 -158.42464 -3.110599 -158.42464 
	-3.110599 -158.42464 -32.061655 -143.22562 -25.729836 161.13324 
	-3.110599 -158.42464 -25.729836 161.13324 -32.061655 -143.22562 
2.06 -23.618556 44.249726 -3.1099439 -159.21721 -3.1099439 -159.21721 
	-3.1099439 -159.21721 -32.157377 -144.10461 -25.968467 159.82785 
	-3.1099439 -159.21721 -25.968467 159.82785 -32.157377 -144.10461 
2.07 -23.840049 43.639361 -3.1093189 -160.00978 -3.1093189 -160.00978 
	-3.1093189 -160.00978 -32.253229 -144.96842 -26.211099 158.4963 
	-3.1093189 -160.00978 -26.211099 158.4963 -32.253229 -144.96842 
2.08 -24.066005 43.03288 -3.1087247 -160.80234 -3.1087247 -160.80234 
	-3.1087247 -160.80234 -32.349215 -145.81705 -26.457818 157.13688 
	-3.1087247 -160.80234 -26.457818 157.13688 -32.349215 -145.81705 
2.09 -24.296598 42.4306 -3.1081603 -161.59488 -3.1081603 -161.59488 
	-3.1081603 -161.59488 -32.445311 -146.65024 -26.708703 155.74775 
	-3.1081603 -161.59488 -26.708703 155.74775 -32.445311 -146.65024 
2.1 -24.53201 41.832833 -3.1076255 -162.38742 -3.1076255 -162.38742 
	-3.1076255 -162.38742 -32.541499 -147.46778 -26.963832 154.32693 
	-3.1076255 -162.38742 -26.963832 154.32693 -32.541499 -147.46778 
2.11 -24.77244 41.239862 -3.1071201 -163.17993 -3.1071201 -163.17993 
	-3.1071201 -163.17993 -32.63777 -148.26952 -27.223274 152.87223 
	-3.1071201 -163.17993 -27.223274 152.87223 -32.63777 -148.26952 
2.12 -25.018094 40.652081 -3.1066439 -163.97242 -3.1066439 -163.97242 
	-3.1066439 -163.97242 -32.734096 -149.05529 -27.487097 151.38134 
	-3.1066439 -163.97242 -27.487097 151.38134 -32.734096 -149.05529 
2.13 -25.2692 40.069844 -3.1061962 -164.76489 -3.1061962 -164.76489 
	-3.1061962 -164.76489 -32.830456 -149.82491 -27.755348 149.8517 
	-3.1061962 -164.76489 -27.755348 149.8517 -32.830456 -149.82491 
2.14 -25.526006 39.493585 -3.1057766 -165.55733 -3.1057766 -165.55733 
	-3.1057766 -165.55733 -32.926846 -150.57818 -28.02807 148.28055 
	-3.1057766 -165.55733 -28.02807 148.28055 -32.926846 -150.57818 
2.15 -25.788739 38.923769 -3.1053851 -166.34973 -3.1053851 -166.34973 
	-3.1053851 -166.34973 -33.023192 -151.31502 -28.30528 146.66499 
	-3.1053851 -166.34973 -28.30528 146.66499 -33.023192 -151.31502 
2.16 -26.057711 38.360911 -3.1050212 -167.14211 -3.1050212 -167.14211 
	-3.1050212 -167.14211 -33.119509 -152.03498 -28.586991 145.00172 
	-3.1050212 -167.14211 -28.586991 145.00172 -33.119509 -152.03498 
2.17 -26.333188 37.805659 -3.1046843 -167.93445 -3.1046843 -167.93445 
	-3.1046843 -167.93445 -33.215733 -152.73838 -28.87317 143.28728 
	-3.1046843 -167.93445 -28.87317 143.28728 -33.215733 -152.73838 
2.18 -26.615512 37.258576 -3.1043742 -168.72676 -3.1043742 -168.72676 
	-3.1043742 -168.72676 -33.311849 -153.42464 -29.163774 141.51792 
	-3.1043742 -168.72676 -29.163774 141.51792 -33.311849 -153.42464 
2.19 -26.905023 36.720339 -3.1040905 -169.51902 -3.1040905 -169.51902 
	-3.1040905 -169.51902 -33.407819 -154.09382 -29.458708 139.68957 
	-3.1040905 -169.51902 -29.458708 139.68957 -33.407819 -154.09382 
2.2 -27.202092 36.191789 -3.103833 -170.31124 -3.103833 -170.31124 
	-3.103833 -170.31124 -33.503599 -154.74572 -29.757836 137.79786 
	-3.103833 -170.31124 -29.757836 137.79786 -33.503599 -154.74572 
2.21 -27.507134 35.673786 -3.1036006 -171.10341 -3.1036006 -171.10341 
	-3.1036006 -171.10341 -33.59914 -155.38023 -30.060962 135.83809 
	-3.1036006 -171.10341 -30.060962 135.83809 -33.59914 -155.38023 
2.22 -27.820579 35.167348 -3.1033936 -171.89554 -3.1033936 -171.89554 
	-3.1033936 -171.89554 -33.694407 -155.99717 -30.367835 133.80527 
	-3.1033936 -171.89554 -30.367835 133.80527 -33.694407 -155.99717 
2.23 -28.14292 34.673536 -3.103211 -172.68762 -3.103211 -172.68762 
	-3.103211 -172.68762 -33.789341 -156.59658 -30.67812 131.69404 
	-3.103211 -172.68762 -30.67812 131.69404 -33.789341 -156.59658 
2.24 -28.474672 34.193666 -3.1030529 -173.47964 -3.1030529 -173.47964 
	-3.1030529 -173.47964 -33.8839 -157.17824 -30.991392 129.49876 
	-3.1030529 -173.47964 -30.991392 129.49876 -33.8839 -157.17824 
2.25 -28.816426 33.729203 -3.1029187 -174.27161 -3.1029187 -174.27161 
	-3.1029187 -174.27161 -33.978043 -157.74202 -31.307119 127.2135 
	-3.1029187 -174.27161 -31.307119 127.2135 -33.978043 -157.74202 
2.26 -29.168793 33.281695 -3.1028078 -175.06353 -3.1028078 -175.06353 
	-3.1028078 -175.06353 -34.071675 -158.28802 -31.624631 124.83211 
	-3.1028078 -175.06353 -31.624631 124.83211 -34.071675 -158.28802 
2.27 -29.532488 32.853027 -3.1027199 -175.85539 -3.1027199 -175.85539 
	-3.1027199 -175.85539 -34.164768 -158.81593 -31.943126 122.34827 
	-3.1027199 -175.85539 -31.943126 122.34827 -34.164768 -158.81593 
2.28 -29.908244 32.445421 -3.1026543 -176.64718 -3.1026543 -176.64718 
	-3.1026543 -176.64718 -34.257229 -159.32622 -32.26162 119.7556 
	-3.1026543 -176.64718 -32.26162 119.7556 -34.257229 -159.32622 
2.29 -30.296949 32.061298 -3.102611 -177.43892 -3.102611 -177.43892 
	-3.102611 -177.43892 -34.34902 -159.81842 -32.578964 117.04783 
	-3.102611 -177.43892 -32.578964 117.04783 -34.34902 -159.81842 
2.3 -30.699534 31.703537 -3.1025893 -178.23059 -3.1025893 -178.23059 
	-3.1025893 -178.23059 -34.440069 -160.2927 -32.893782 114.21895 
	-3.1025893 -178.23059 -32.893782 114.21895 -34.440069 -160.2927 
2.31 -31.117062 31.375565 -3.1025884 -179.0222 -3.1025884 -179.0222 
	-3.1025884 -179.0222 -34.530292 -160.74906 -33.204471 111.26352 
	-3.1025884 -179.0222 -33.204471 111.26352 -34.530292 -160.74906 
2.32 -31.550707 31.081248 -3.1026082 -179.81374 -3.1026082 -179.81374 
	-3.1026082 -179.81374 -34.619633 -161.18765 -33.509199 108.17686 
	-3.1026082 -179.81374 -33.509199 108.17686 -34.619633 -161.18765 
2.33 -32.001816 30.82533 -3.1026482 179.39479 -3.1026482 179.39479 
	-3.1026482 179.39479 -34.708021 -161.60829 -33.805887 104.9556 
	-3.1026482 179.39479 -33.805887 104.9556 -34.708021 -161.60829 
2.34 -32.471827 30.61344 -3.1027081 178.60338 -3.1027081 178.60338 
	-3.1027081 178.60338 -34.79535 -162.01164 -34.092217 101.5979 
	-3.1027081 178.60338 -34.092217 101.5979 -34.79535 -162.01164 
2.35 -32.962494 30.452197 -3.1027871 177.81205 -3.1027871 177.81205 
	-3.1027871 177.81205 -34.88157 -162.39737 -34.365673 98.104015 
	-3.1027871 177.81205 -34.365673 98.104015 -34.88157 -162.39737 
2.36 -33.475719 30.349779 -3.1028851 177.02079 -3.1028851 177.02079 
	-3.1028851 177.02079 -34.966601 -162.76574 -34.623561 94.47682 
	-3.1028851 177.02079 -34.623561 94.47682 -34.966601 -162.76574 
2.37 -34.01372 30.315942 -3.1030012 176.2296 -3.1030012 176.2296 
	-3.1030012 176.2296 -35.050347 -163.11713 -34.863085 90.721979 
	-3.1030012 176.2296 -34.863085 90.721979 -35.050347 -163.11713 
2.38 -34.579037 30.363021 -3.1031348 175.43848 -3.1031348 175.43848 
	-3.1031348 175.43848 -35.132739 -163.45142 -35.081452 86.848718 
	-3.1031348 175.43848 -35.081452 86.848718 -35.132739 -163.45142 
2.39 -35.174502 30.506163 -3.1032859 174.64744 -3.1032859 174.64744 
	-3.1032859 174.64744 -35.213671 -163.76953 -35.275965 82.869705 
	-3.1032859 174.64744 -35.275965 82.869705 -35.213671 -163.76953 
2.4 -35.803551 30.764533 -3.103454 173.85648 -3.103454 173.85648 
	-3.103454 173.85648 -35.293084 -164.07121 -35.444186 78.801174 
	-3.103454 173.85648 -35.444186 78.801174 -35.293084 -164.07121 
2.41 -36.470053 31.162515 -3.1036384 173.06559 -3.1036384 173.06559 
	-3.1036384 173.06559 -35.370889 -164.35703 -35.584024 74.662707 
	-3.1036384 173.06559 -35.584024 74.662707 -35.370889 -164.35703 
2.42 -37.178511 31.731735 -3.1038385 172.27478 -3.1038385 172.27478 
	-3.1038385 172.27478 -35.447003 -164.62735 -35.693906 70.47666 
	-3.1038385 172.27478 -35.693906 70.47666 -35.447003 -164.62735 
2.43 -37.934128 32.513703 -3.1040543 171.48404 -3.1040543 171.48404 
	-3.1040543 171.48404 -35.521348 -164.88259 -35.772868 66.26739 
	-3.1040543 171.48404 -35.772868 66.26739 -35.521348 -164.88259 
2.44 -38.742925 33.563672 -3.1042847 170.69339 -3.1042847 170.69339 
	-3.1042847 170.69339 -35.593852 -165.12311 -35.820606 62.060307 
	-3.1042847 170.69339 -35.820606 62.060307 -35.593852 -165.12311 
2.45 -39.611439 34.956704 -3.1045295 169.90281 -3.1045295 169.90281 
	-3.1045295 169.90281 -35.664404 -165.34987 -35.837535 57.88074 
	-3.1045295 169.90281 -35.837535 57.88074 -35.664404 -165.34987 